 Entering Gaussian System, Link 0=g09
 Input=.masters/Inputs/H2O2_Kr-opt.com
 Output=.masters/Logs/H2O2_Kr-opt.log
 Initial command:
 /home/matheus/g09/l1.exe /home/matheus/g09/Gau-40435.inp -scrdir=/home/matheus/g09/
 Entering Link 1 = /home/matheus/g09/l1.exe PID=     40437.
  
 Copyright (c) 1988,1990,1992,1993,1995,1998,2003,2009,2011,
            Gaussian, Inc.  All Rights Reserved.
  
 This is part of the Gaussian(R) 09 program.  It is based on
 the Gaussian(R) 03 system (copyright 2003, Gaussian, Inc.),
 the Gaussian(R) 98 system (copyright 1998, Gaussian, Inc.),
 the Gaussian(R) 94 system (copyright 1995, Gaussian, Inc.),
 the Gaussian 92(TM) system (copyright 1992, Gaussian, Inc.),
 the Gaussian 90(TM) system (copyright 1990, Gaussian, Inc.),
 the Gaussian 88(TM) system (copyright 1988, Gaussian, Inc.),
 the Gaussian 86(TM) system (copyright 1986, Carnegie Mellon
 University), and the Gaussian 82(TM) system (copyright 1983,
 Carnegie Mellon University). Gaussian is a federally registered
 trademark of Gaussian, Inc.
  
 This software contains proprietary and confidential information,
 including trade secrets, belonging to Gaussian, Inc.
  
 This software is provided under written license and may be
 used, copied, transmitted, or stored only in accord with that
 written license.
  
 The following legend is applicable only to US Government
 contracts under FAR:
  
                    RESTRICTED RIGHTS LEGEND
  
 Use, reproduction and disclosure by the US Government is
 subject to restrictions as set forth in subparagraphs (a)
 and (c) of the Commercial Computer Software - Restricted
 Rights clause in FAR 52.227-19.
  
 Gaussian, Inc.
 340 Quinnipiac St., Bldg. 40, Wallingford CT 06492
  
  
 ---------------------------------------------------------------
 Warning -- This program may not be used in any manner that
 competes with the business of Gaussian, Inc. or will provide
 assistance to any competitor of Gaussian, Inc.  The licensee
 of this program is prohibited from giving any competitor of
 Gaussian, Inc. access to this program.  By using this program,
 the user acknowledges that Gaussian, Inc. is engaged in the
 business of creating and licensing software in the field of
 computational chemistry and represents and warrants to the
 licensee that it is not a competitor of Gaussian, Inc. and that
 it will not use this program in any manner prohibited above.
 ---------------------------------------------------------------
  

 Cite this work as:
 Gaussian 09, Revision C.01,
 M. J. Frisch, G. W. Trucks, H. B. Schlegel, G. E. Scuseria, 
 M. A. Robb, J. R. Cheeseman, G. Scalmani, V. Barone, B. Mennucci, 
 G. A. Petersson, H. Nakatsuji, M. Caricato, X. Li, H. P. Hratchian, 
 A. F. Izmaylov, J. Bloino, G. Zheng, J. L. Sonnenberg, M. Hada, 
 M. Ehara, K. Toyota, R. Fukuda, J. Hasegawa, M. Ishida, T. Nakajima, 
 Y. Honda, O. Kitao, H. Nakai, T. Vreven, J. A. Montgomery, Jr., 
 J. E. Peralta, F. Ogliaro, M. Bearpark, J. J. Heyd, E. Brothers, 
 K. N. Kudin, V. N. Staroverov, T. Keith, R. Kobayashi, J. Normand, 
 K. Raghavachari, A. Rendell, J. C. Burant, S. S. Iyengar, J. Tomasi, 
 M. Cossi, N. Rega, J. M. Millam, M. Klene, J. E. Knox, J. B. Cross, 
 V. Bakken, C. Adamo, J. Jaramillo, R. Gomperts, R. E. Stratmann, 
 O. Yazyev, A. J. Austin, R. Cammi, C. Pomelli, J. W. Ochterski, 
 R. L. Martin, K. Morokuma, V. G. Zakrzewski, G. A. Voth, 
 P. Salvador, J. J. Dannenberg, S. Dapprich, A. D. Daniels, 
 O. Farkas, J. B. Foresman, J. V. Ortiz, J. Cioslowski, 
 and D. J. Fox, Gaussian, Inc., Wallingford CT, 2010.
 
 ******************************************
 Gaussian 09:  EM64L-G09RevC.01 23-Sep-2011
                17-Sep-2021 
 ******************************************
 %mem=8GB
 %nproc=8
 Will use up to    8 processors via shared memory.
 ---------------------------------------------------
 #p MP4/aug-cc-PVTz opt int=ultrafine counterpoise=2
 ---------------------------------------------------

 Warning:  this job cannot use analytic gradients
           and so will do many energy evaluations.

 1/29=20000,38=1,62=2/1,14;
 2/12=2,17=6,18=5,29=3,40=1/2;
 1/38=1,53=5172,62=2/22;
 3/5=16,6=1,7=10,11=9,16=1,25=1,30=1,75=-5/1,2,3;
 4//1;
 5/5=2,38=5/2;
 8/6=4,9=120000,10=1/1,4;
 9/5=5/13;
 6/7=2,8=2,9=2,10=2/1;
 1/53=4052,62=2,63=1/22;
 3/5=7,6=11,7=10,11=9,16=1,25=1,30=1,75=-5,82=7/1,2,3;
 4//1;
 5/5=2,38=5/2;
 8/6=4,9=120000,10=1/1,4;
 9/5=5/13;
 6/7=2,8=2,9=2,10=2/1;
 1/53=3042,62=2,63=2/22;
 3/5=7,6=11,7=10,11=9,16=1,25=1,30=1,75=-5,82=7/1,2,3;
 4//1;
 5/5=2,38=5/2;
 8/6=4,9=120000,10=1/1,4;
 9/5=5/13;
 6/7=2,8=2,9=2,10=2/1;
 1/53=2032,62=2,63=3/22;
 3/5=7,6=11,7=10,11=9,16=1,25=1,30=1,75=-5,82=7/1,2,3;
 4//1;
 5/5=2,38=5/2;
 8/6=4,9=120000,10=1/1,4;
 9/5=5/13;
 6/7=2,8=2,9=2,10=2/1;
 1/53=1022,62=2,63=4/22;
 3/5=7,6=11,7=10,11=9,16=1,25=1,30=1,75=-5,82=7/1,2,3;
 4//1;
 5/5=2,38=5/2;
 8/6=4,9=120000,10=1/1,4;
 9/5=5/13;
 6/7=2,8=2,9=2,10=2/1;
 1/53=5014,62=2,63=5/22;
 1/62=2/14(2);
 2/29=3/2;
 99//99;
 2/29=3/2;
 1/53=5173,62=2/22;
 3/5=7,6=11,7=10,11=9,16=1,25=1,30=1,75=-5,82=7/1,2,3;
 4/5=5,16=3/1;
 5/5=2,38=5/2;
 8/6=4,9=120000,10=1/1,4;
 9/5=5/13;
 1/53=4053,62=2,63=1/22;
 3/5=7,6=11,7=10,11=9,16=1,25=1,30=1,75=-5,82=7/1,2,3;
 4/5=5,16=3/1;
 5/5=2,38=5/2;
 8/6=4,9=120000,10=1/1,4;
 9/5=5/13;
 1/53=3043,62=2,63=2/22;
 3/5=7,6=11,7=10,11=9,16=1,25=1,30=1,75=-5,82=7/1,2,3;
 4/5=5,16=3/1;
 5/5=2,38=5/2;
 8/6=4,9=120000,10=1/1,4;
 9/5=5/13;
 1/53=2033,62=2,63=3/22;
 3/5=7,6=11,7=10,11=9,16=1,25=1,30=1,75=-5,82=7/1,2,3;
 4/5=5,16=3/1;
 5/5=2,38=5/2;
 8/6=4,9=120000,10=1/1,4;
 9/5=5/13;
 1/53=1024,62=2,63=4/22;
 3/5=7,6=11,7=10,11=9,16=1,25=1,30=1,75=-5,82=7/1,2,3;
 4/5=5,16=3/1;
 5/5=2,38=5/2;
 8/6=4,9=120000,10=1/1,4;
 9/5=5/13;
 1/53=5014,62=2,63=5/22;
 1/62=2/14(-32);
 2/29=3/2;
 6/7=2,8=2,9=2,10=2/1;
 99//99;
 Leave Link    1 at Fri Sep 17 08:33:25 2021, MaxMem= 1073741824 cpu:       0.1
 (Enter /home/matheus/g09/l101.exe)
 ---------------
 H2O2-Kr-geomOpt
 ---------------
 Charge =  0 Multiplicity = 1 in supermolecule
 Charge =  0 Multiplicity = 1 in fragment  1.
 Charge =  0 Multiplicity = 1 in fragment  2.
 Symbolic Z-Matrix:
 O(Fragment=1)        0     0.        0.       -0.725 
 O(Fragment=1)        1     1.45 
 H(Fragment=1)        1     0.966    2     108. 
 H(Fragment=1)        2     0.966    1     105.     3    T        0
 Kr(Fragment=2)       0     0.       R         0. 
       Variables:
  T                   120.                       
  R                     3.5                      
 
 NAtoms=      5 NQM=        0 NQMF=       0 NMMI=      5 NMMIF=      0
                NMic=       0 NMicF=      0.
                    Isotopes and Nuclear Properties:
 (Nuclear quadrupole moments (NQMom) in fm**2, nuclear magnetic moments (NMagM)
  in nuclear magnetons)

  Atom         1           2           3           4           5
 IAtWgt=          16          16           1           1          84
 AtmWgt=  15.9949146  15.9949146   1.0078250   1.0078250  83.9115064
 NucSpn=           0           0           1           1           0
 AtZEff=   0.0000000   0.0000000   0.0000000   0.0000000   0.0000000
 NQMom=    0.0000000   0.0000000   0.0000000   0.0000000   0.0000000
 NMagM=    0.0000000   0.0000000   2.7928460   2.7928460   0.0000000
 Leave Link  101 at Fri Sep 17 08:33:25 2021, MaxMem= 1073741824 cpu:       0.4
 (Enter /home/matheus/g09/l114.exe)

 NEF-NEF-NEF-NEF-NEF-NEF-NEF-NEF-NEF-NEF-NEF-NEF-NEF-NEF-NEF-NEF-NEF-NEF-
 NUMERICAL EIGENVECTOR FOLLOWING MINIMUM SEARCH
 INITIALIZATION PASS
                       ----------------------------
                       !    Initial Parameters    !
                       ! (Angstroms and Degrees)  !
 ----------------------                            ----------------------
 !      Name          Value   Derivative information (Atomic Units)     !
 ------------------------------------------------------------------------
 !        T        120.0      estimate D2E/DX2                          !
 !        R          3.5      estimate D2E/DX2                          !
 ------------------------------------------------------------------------


 ***************************************************
 ** O P T I M I Z A T I O N   P A R A M E T E R S **
 **  MAXIMUM NO. OF ITERATIONS      :          22 **
 **  MAXIMUM ALLOWED STEP LENGTH    :    0.300000 **
 ***************************************************



 NEF-NEF-NEF-NEF-NEF-NEF-NEF-NEF-NEF-NEF-NEF-NEF-NEF-NEF-NEF-NEF-NEF-NEF-
 Leave Link  114 at Fri Sep 17 08:33:25 2021, MaxMem= 1073741824 cpu:       0.0
 (Enter /home/matheus/g09/l202.exe)
 ---------------------------------------------------------------------------------------------------
                            Z-MATRIX (ANGSTROMS AND DEGREES)
   CD    Cent   Atom    N1       Length/X        N2       Alpha/Y        N3        Beta/Z          J
 ---------------------------------------------------------------------------------------------------
      1      1  O        0   0.000000          0.000000         -0.725000
      2      2  O        1   1.450000(     1)
      3      3  H        1   0.966000(     2)      2  108.000(     5)
      4      4  H        2   0.966000(     3)      1  105.000(     6)      3  120.000(     8)      0
      5      5  Kr       0   0.000000          3.500000          0.000000
 ---------------------------------------------------------------------------------------------------
                         Z-Matrix orientation:                         
 ---------------------------------------------------------------------
 Center     Atomic      Atomic             Coordinates (Angstroms)
 Number     Number       Type             X           Y           Z
 ---------------------------------------------------------------------
      1          8           0        0.000000    0.000000   -0.725000
      2          8           0        0.000000    0.000000    0.725000
      3          1           0        0.918721    0.000000   -1.023510
      4          1           0       -0.466542    0.808075    0.975019
      5         36           0        0.000000    3.500000    0.000000
 ---------------------------------------------------------------------
                    Distance matrix (angstroms):
                    1          2          3          4          5
     1  O    0.000000
     2  O    1.450000   0.000000
     3  H    0.966000   1.975180   0.000000
     4  H    1.939255   0.966000   2.562432   0.000000
     5  Kr   3.574301   3.574301   3.760535   2.900825   0.000000
 Stoichiometry    H2KrO2
 Framework group  C1[X(H2KrO2)]
 Deg. of freedom     9
 Full point group                 C1      NOp   1
 Largest Abelian subgroup         C1      NOp   1
 Largest concise Abelian subgroup C1      NOp   1
                         Standard orientation:                         
 ---------------------------------------------------------------------
 Center     Atomic      Atomic             Coordinates (Angstroms)
 Number     Number       Type             X           Y           Z
 ---------------------------------------------------------------------
      1          8           0       -2.353005   -0.696035   -0.133412
      2          8           0       -2.343056    0.738934    0.074586
      3          1           0       -2.364369   -1.123172    0.732949
      4          1           0       -1.528596    1.046590   -0.343933
      5         36           0        1.151707   -0.007406    0.002266
 ---------------------------------------------------------------------
 Rotational constants (GHZ):     25.4141175      1.7190190      1.6199219
 Leave Link  202 at Fri Sep 17 08:33:26 2021, MaxMem= 1073741824 cpu:       0.0
 (Enter /home/matheus/g09/l122.exe)
 Leave Link  122 at Fri Sep 17 08:33:26 2021, MaxMem= 1073741824 cpu:       0.0
 (Enter /home/matheus/g09/l301.exe)
 Standard basis: Aug-CC-pVTZ (5D, 7F)
 Ernie: Thresh=  0.10000D-02 Tol=  0.10000D-05 Strict=F.
 Ernie:  38 primitive shells out of 205 were deleted.
 There are   197 symmetry adapted basis functions of A   symmetry.
 Integral buffers will be    131072 words long.
 Raffenetti 1 integral format.
 Two-electron integral symmetry is turned on.
   197 basis functions,   415 primitive gaussians,   229 cartesian basis functions
    27 alpha electrons       27 beta electrons
       nuclear repulsion energy       133.5646801883 Hartrees.
 IExCor=    0 DFT=F Ex=HF Corr=None ExCW=0 ScaHFX=  1.000000
 ScaDFX=  1.000000  1.000000  1.000000  1.000000 ScalE2=  1.000000  1.000000
 IRadAn=      5 IRanWt=     -1 IRanGd=            0 ICorTp=0
 NAtoms=    5 NActive=    5 NUniq=    5 SFac= 1.00D+00 NAtFMM=   60 NAOKFM=F Big=F
 Leave Link  301 at Fri Sep 17 08:33:26 2021, MaxMem= 1073741824 cpu:       0.2
 (Enter /home/matheus/g09/l302.exe)
 NPDir=0 NMtPBC=     1 NCelOv=     1 NCel=       1 NClECP=     1 NCelD=      1
         NCelK=      1 NCelE2=     1 NClLst=     1 CellRange=     0.0.
 One-electron integrals computed using PRISM.
 NBasis=   197 RedAO= T  NBF=   197
 NBsUse=   197 1.00D-06 NBFU=   197
 Leave Link  302 at Fri Sep 17 08:33:26 2021, MaxMem= 1073741824 cpu:       1.0
 (Enter /home/matheus/g09/l303.exe)
 DipDrv:  MaxL=1.
 Leave Link  303 at Fri Sep 17 08:33:26 2021, MaxMem= 1073741824 cpu:       0.4
 (Enter /home/matheus/g09/l401.exe)
 Harris functional with IExCor=  205 diagonalized for initial guess.
 ExpMin= 2.53D-02 ExpMax= 1.17D+07 ExpMxC= 1.33D+04 IAcc=3 IRadAn=         5 AccDes= 0.00D+00
 HarFok:  IExCor=  205 AccDes= 0.00D+00 IRadAn=         5 IDoV= 1
 ScaDFX=  1.000000  1.000000  1.000000  1.000000
 FoFCou: FMM=F IPFlag=           0 FMFlag=      100000 FMFlg1=           0
         NFxFlg=           0 DoJE=T BraDBF=F KetDBF=T FulRan=T
         Omega=  0.000000  0.000000  1.000000  0.000000  0.000000 ICntrl=     500 IOpCl=  0
         NMat0=    1 NMatS0=    1 NMatT0=    0 NMatD0=    1 NMtDS0=    0 NMtDT0=    0
         I1Cent=           4 NGrid=           0.
 Petite list used in FoFCou.
 Harris En= -2901.93556547322    
 Initial guess orbital symmetries:
       Occupied  (A) (A) (A) (A) (A) (A) (A) (A) (A) (A) (A) (A)
                 (A) (A) (A) (A) (A) (A) (A) (A) (A) (A) (A) (A)
                 (A) (A) (A)
       Virtual   (A) (A) (A) (A) (A) (A) (A) (A) (A) (A) (A) (A)
                 (A) (A) (A) (A) (A) (A) (A) (A) (A) (A) (A) (A)
                 (A) (A) (A) (A) (A) (A) (A) (A) (A) (A) (A) (A)
                 (A) (A) (A) (A) (A) (A) (A) (A) (A) (A) (A) (A)
                 (A) (A) (A) (A) (A) (A) (A) (A) (A) (A) (A) (A)
                 (A) (A) (A) (A) (A) (A) (A) (A) (A) (A) (A) (A)
                 (A) (A) (A) (A) (A) (A) (A) (A) (A) (A) (A) (A)
                 (A) (A) (A) (A) (A) (A) (A) (A) (A) (A) (A) (A)
                 (A) (A) (A) (A) (A) (A) (A) (A) (A) (A) (A) (A)
                 (A) (A) (A) (A) (A) (A) (A) (A) (A) (A) (A) (A)
                 (A) (A) (A) (A) (A) (A) (A) (A) (A) (A) (A) (A)
                 (A) (A) (A) (A) (A) (A) (A) (A) (A) (A) (A) (A)
                 (A) (A) (A) (A) (A) (A) (A) (A) (A) (A) (A) (A)
                 (A) (A) (A) (A) (A) (A) (A) (A) (A) (A) (A) (A)
                 (A) (A)
 The electronic state of the initial guess is 1-A.
 Leave Link  401 at Fri Sep 17 08:33:27 2021, MaxMem= 1073741824 cpu:       2.7
 (Enter /home/matheus/g09/l502.exe)
 Closed shell SCF:
 Requested convergence on RMS density matrix=1.00D-08 within 128 cycles.
 Requested convergence on MAX density matrix=1.00D-06.
 Requested convergence on             energy=1.00D-06.
 No special actions if energy rises.
 Using DIIS extrapolation, IDIIS=  1040.
 Integral symmetry usage will be decided dynamically.
 Keep R1 ints in memory in canonical form, NReq=353041626.
 IEnd=      178947 IEndB=      178947 NGot=  1073741824 MDV=   726852880
 LenX=   726852880 LenY=   726799998
 Symmetry not used in FoFDir.
 MinBra= 0 MaxBra= 3 Meth= 1.
 IRaf=       0 NMat=   1 IRICut=       1 DoRegI=T DoRafI=F ISym2E= 0 JSym2E=0.

 Cycle   1  Pass 1  IDiag  1:
 E= -2902.76987557254    
 DIIS: error= 6.07D-02 at cycle   1 NSaved=   1.
 NSaved= 1 IEnMin= 1 EnMin= -2902.76987557254     IErMin= 1 ErrMin= 6.07D-02
 ErrMax= 6.07D-02 EMaxC= 1.00D-01 BMatC= 6.77D-01 BMatP= 6.77D-01
 IDIUse=3 WtCom= 3.93D-01 WtEn= 6.07D-01
 Coeff-Com:  0.100D+01
 Coeff-En:   0.100D+01
 Coeff:      0.100D+01
 Gap=     0.702 Goal=   None    Shift=    0.000
 GapD=    0.702 DampG=2.000 DampE=0.500 DampFc=1.0000 IDamp=-1.
 RMSDP=2.04D-03 MaxDP=1.41D-01              OVMax= 5.69D-02

 Cycle   2  Pass 1  IDiag  1:
 E= -2902.87333344970     Delta-E=       -0.103457877162 Rises=F Damp=F
 DIIS: error= 9.68D-03 at cycle   2 NSaved=   2.
 NSaved= 2 IEnMin= 2 EnMin= -2902.87333344970     IErMin= 2 ErrMin= 9.68D-03
 ErrMax= 9.68D-03 EMaxC= 1.00D-01 BMatC= 3.88D-02 BMatP= 6.77D-01
 IDIUse=3 WtCom= 9.03D-01 WtEn= 9.68D-02
 Coeff-Com:  0.150D+00 0.850D+00
 Coeff-En:   0.000D+00 0.100D+01
 Coeff:      0.136D+00 0.864D+00
 Gap=     0.535 Goal=   None    Shift=    0.000
 RMSDP=7.21D-04 MaxDP=3.90D-02 DE=-1.03D-01 OVMax= 2.39D-02

 Cycle   3  Pass 1  IDiag  1:
 E= -2902.88660335455     Delta-E=       -0.013269904841 Rises=F Damp=F
 DIIS: error= 1.96D-03 at cycle   3 NSaved=   3.
 NSaved= 3 IEnMin= 3 EnMin= -2902.88660335455     IErMin= 3 ErrMin= 1.96D-03
 ErrMax= 1.96D-03 EMaxC= 1.00D-01 BMatC= 2.26D-03 BMatP= 3.88D-02
 IDIUse=3 WtCom= 9.80D-01 WtEn= 1.96D-02
 Coeff-Com: -0.601D-02 0.172D+00 0.834D+00
 Coeff-En:   0.000D+00 0.000D+00 0.100D+01
 Coeff:     -0.589D-02 0.169D+00 0.837D+00
 Gap=     0.513 Goal=   None    Shift=    0.000
 RMSDP=1.18D-04 MaxDP=4.70D-03 DE=-1.33D-02 OVMax= 7.69D-03

 Cycle   4  Pass 1  IDiag  1:
 E= -2902.88769513438     Delta-E=       -0.001091779834 Rises=F Damp=F
 DIIS: error= 3.84D-04 at cycle   4 NSaved=   4.
 NSaved= 4 IEnMin= 4 EnMin= -2902.88769513438     IErMin= 4 ErrMin= 3.84D-04
 ErrMax= 3.84D-04 EMaxC= 1.00D-01 BMatC= 4.37D-05 BMatP= 2.26D-03
 IDIUse=3 WtCom= 9.96D-01 WtEn= 3.84D-03
 Coeff-Com: -0.418D-02 0.102D-01 0.146D+00 0.848D+00
 Coeff-En:   0.000D+00 0.000D+00 0.000D+00 0.100D+01
 Coeff:     -0.417D-02 0.102D-01 0.145D+00 0.849D+00
 Gap=     0.516 Goal=   None    Shift=    0.000
 RMSDP=1.96D-05 MaxDP=6.96D-04 DE=-1.09D-03 OVMax= 1.70D-03

 Cycle   5  Pass 1  IDiag  1:
 E= -2902.88773255503     Delta-E=       -0.000037420652 Rises=F Damp=F
 DIIS: error= 1.32D-04 at cycle   5 NSaved=   5.
 NSaved= 5 IEnMin= 5 EnMin= -2902.88773255503     IErMin= 5 ErrMin= 1.32D-04
 ErrMax= 1.32D-04 EMaxC= 1.00D-01 BMatC= 3.48D-06 BMatP= 4.37D-05
 IDIUse=3 WtCom= 9.99D-01 WtEn= 1.32D-03
 Coeff-Com:  0.865D-03-0.155D-01-0.740D-01-0.171D-02 0.109D+01
 Coeff-En:   0.000D+00 0.000D+00 0.000D+00 0.000D+00 0.100D+01
 Coeff:      0.864D-03-0.155D-01-0.739D-01-0.171D-02 0.109D+01
 Gap=     0.516 Goal=   None    Shift=    0.000
 RMSDP=1.05D-05 MaxDP=3.24D-04 DE=-3.74D-05 OVMax= 8.70D-04

 Cycle   6  Pass 1  IDiag  1:
 E= -2902.88773820468     Delta-E=       -0.000005649651 Rises=F Damp=F
 DIIS: error= 2.94D-05 at cycle   6 NSaved=   6.
 NSaved= 6 IEnMin= 6 EnMin= -2902.88773820468     IErMin= 6 ErrMin= 2.94D-05
 ErrMax= 2.94D-05 EMaxC= 1.00D-01 BMatC= 2.55D-07 BMatP= 3.48D-06
 IDIUse=1 WtCom= 1.00D+00 WtEn= 0.00D+00
 Coeff-Com:  0.193D-03 0.357D-03-0.652D-02-0.641D-01-0.324D-01 0.110D+01
 Coeff:      0.193D-03 0.357D-03-0.652D-02-0.641D-01-0.324D-01 0.110D+01
 Gap=     0.516 Goal=   None    Shift=    0.000
 RMSDP=3.48D-06 MaxDP=1.01D-04 DE=-5.65D-06 OVMax= 3.42D-04

 Cycle   7  Pass 1  IDiag  1:
 E= -2902.88773878039     Delta-E=       -0.000000575705 Rises=F Damp=F
 DIIS: error= 1.13D-05 at cycle   7 NSaved=   7.
 NSaved= 7 IEnMin= 7 EnMin= -2902.88773878039     IErMin= 7 ErrMin= 1.13D-05
 ErrMax= 1.13D-05 EMaxC= 1.00D-01 BMatC= 3.48D-08 BMatP= 2.55D-07
 IDIUse=1 WtCom= 1.00D+00 WtEn= 0.00D+00
 Coeff-Com: -0.349D-04 0.126D-02 0.494D-02-0.827D-02-0.903D-01 0.110D+00
 Coeff-Com:  0.982D+00
 Coeff:     -0.349D-04 0.126D-02 0.494D-02-0.827D-02-0.903D-01 0.110D+00
 Coeff:      0.982D+00
 Gap=     0.516 Goal=   None    Shift=    0.000
 RMSDP=1.34D-06 MaxDP=4.98D-05 DE=-5.76D-07 OVMax= 1.55D-04

 Cycle   8  Pass 1  IDiag  1:
 E= -2902.88773885857     Delta-E=       -0.000000078183 Rises=F Damp=F
 DIIS: error= 8.08D-06 at cycle   8 NSaved=   8.
 NSaved= 8 IEnMin= 8 EnMin= -2902.88773885857     IErMin= 8 ErrMin= 8.08D-06
 ErrMax= 8.08D-06 EMaxC= 1.00D-01 BMatC= 9.92D-09 BMatP= 3.48D-08
 IDIUse=1 WtCom= 1.00D+00 WtEn= 0.00D+00
 Coeff-Com: -0.366D-04 0.266D-03 0.236D-02 0.805D-02-0.207D-01-0.145D+00
 Coeff-Com:  0.290D+00 0.866D+00
 Coeff:     -0.366D-04 0.266D-03 0.236D-02 0.805D-02-0.207D-01-0.145D+00
 Coeff:      0.290D+00 0.866D+00
 Gap=     0.516 Goal=   None    Shift=    0.000
 RMSDP=6.02D-07 MaxDP=1.74D-05 DE=-7.82D-08 OVMax= 8.60D-05

 Cycle   9  Pass 1  IDiag  1:
 E= -2902.88773888000     Delta-E=       -0.000000021435 Rises=F Damp=F
 DIIS: error= 2.29D-06 at cycle   9 NSaved=   9.
 NSaved= 9 IEnMin= 9 EnMin= -2902.88773888000     IErMin= 9 ErrMin= 2.29D-06
 ErrMax= 2.29D-06 EMaxC= 1.00D-01 BMatC= 1.76D-09 BMatP= 9.92D-09
 IDIUse=1 WtCom= 1.00D+00 WtEn= 0.00D+00
 Coeff-Com:  0.145D-04-0.319D-03-0.161D-02-0.791D-03 0.226D-01 0.301D-01
 Coeff-Com: -0.303D+00-0.296D+00 0.155D+01
 Coeff:      0.145D-04-0.319D-03-0.161D-02-0.791D-03 0.226D-01 0.301D-01
 Coeff:     -0.303D+00-0.296D+00 0.155D+01
 Gap=     0.516 Goal=   None    Shift=    0.000
 RMSDP=5.21D-07 MaxDP=1.20D-05 DE=-2.14D-08 OVMax= 8.49D-05

 Cycle  10  Pass 1  IDiag  1:
 E= -2902.88773888869     Delta-E=       -0.000000008688 Rises=F Damp=F
 DIIS: error= 7.77D-07 at cycle  10 NSaved=  10.
 NSaved=10 IEnMin=10 EnMin= -2902.88773888869     IErMin=10 ErrMin= 7.77D-07
 ErrMax= 7.77D-07 EMaxC= 1.00D-01 BMatC= 2.30D-10 BMatP= 1.76D-09
 IDIUse=1 WtCom= 1.00D+00 WtEn= 0.00D+00
 Coeff-Com:  0.234D-05 0.840D-04 0.153D-03-0.148D-02-0.440D-02 0.157D-01
 Coeff-Com:  0.710D-01-0.419D-01-0.646D+00 0.161D+01
 Coeff:      0.234D-05 0.840D-04 0.153D-03-0.148D-02-0.440D-02 0.157D-01
 Coeff:      0.710D-01-0.419D-01-0.646D+00 0.161D+01
 Gap=     0.516 Goal=   None    Shift=    0.000
 RMSDP=2.46D-07 MaxDP=5.58D-06 DE=-8.69D-09 OVMax= 4.03D-05

 Cycle  11  Pass 1  IDiag  1:
 E= -2902.88773888993     Delta-E=       -0.000000001242 Rises=F Damp=F
 DIIS: error= 1.97D-07 at cycle  11 NSaved=  11.
 NSaved=11 IEnMin=11 EnMin= -2902.88773888993     IErMin=11 ErrMin= 1.97D-07
 ErrMax= 1.97D-07 EMaxC= 1.00D-01 BMatC= 1.01D-11 BMatP= 2.30D-10
 IDIUse=1 WtCom= 1.00D+00 WtEn= 0.00D+00
 Coeff-Com: -0.213D-05-0.104D-04 0.729D-04 0.830D-03-0.414D-03-0.108D-01
 Coeff-Com:  0.661D-02 0.464D-01 0.676D-01-0.487D+00 0.138D+01
 Coeff:     -0.213D-05-0.104D-04 0.729D-04 0.830D-03-0.414D-03-0.108D-01
 Coeff:      0.661D-02 0.464D-01 0.676D-01-0.487D+00 0.138D+01
 Gap=     0.516 Goal=   None    Shift=    0.000
 RMSDP=3.78D-08 MaxDP=7.58D-07 DE=-1.24D-09 OVMax= 5.31D-06

 Cycle  12  Pass 1  IDiag  1:
 E= -2902.88773888997     Delta-E=       -0.000000000031 Rises=F Damp=F
 DIIS: error= 4.31D-08 at cycle  12 NSaved=  12.
 NSaved=12 IEnMin=12 EnMin= -2902.88773888997     IErMin=12 ErrMin= 4.31D-08
 ErrMax= 4.31D-08 EMaxC= 1.00D-01 BMatC= 3.74D-13 BMatP= 1.01D-11
 IDIUse=1 WtCom= 1.00D+00 WtEn= 0.00D+00
 Coeff-Com: -0.536D-07-0.473D-05-0.138D-04 0.849D-04 0.287D-03-0.109D-02
 Coeff-Com: -0.272D-02 0.228D-02 0.252D-01-0.603D-01-0.676D-01 0.110D+01
 Coeff:     -0.536D-07-0.473D-05-0.138D-04 0.849D-04 0.287D-03-0.109D-02
 Coeff:     -0.272D-02 0.228D-02 0.252D-01-0.603D-01-0.676D-01 0.110D+01
 Gap=     0.516 Goal=   None    Shift=    0.000
 RMSDP=5.37D-09 MaxDP=1.08D-07 DE=-3.14D-11 OVMax= 6.32D-07

 SCF Done:  E(RHF) =  -2902.88773889     A.U. after   12 cycles
             Convg  =    0.5368D-08             -V/T =  2.0001
 KE= 2.902583221472D+03 PE=-7.207613329538D+03 EE= 1.268577688988D+03
 Leave Link  502 at Fri Sep 17 08:33:36 2021, MaxMem= 1073741824 cpu:      69.8
 (Enter /home/matheus/g09/l801.exe)
 Windowed orbitals will be sorted by symmetry type.
 ExpMin= 2.53D-02 ExpMax= 1.17D+07 ExpMxC= 1.33D+04 IAcc=3 IRadAn=         5 AccDes= 0.00D+00
 HarFok:  IExCor=  205 AccDes= 0.00D+00 IRadAn=         5 IDoV=-2
 ScaDFX=  1.000000  1.000000  1.000000  1.000000
 DSYEVD returned Info=          89 IAlg= 4 N=    59 NDim=    59 NE2=    18196822 trying DSYEV.
 Largest valence mixing into a core orbital is  1.44D-04
 Largest core mixing into a valence orbital is  2.60D-05
 Range of M.O.s used for correlation:    12   197
 NBasis=   197 NAE=    27 NBE=    27 NFC=    11 NFV=     0
 NROrb=    186 NOA=    16 NOB=    16 NVA=   170 NVB=   170

 **** Warning!!: The largest alpha MO coefficient is  0.15542331D+02

 Leave Link  801 at Fri Sep 17 08:33:36 2021, MaxMem= 1073741824 cpu:       0.5
 (Enter /home/matheus/g09/l804.exe)
 Closed-shell transformation, MDV=  1073741824 ITran=4 ISComp=1.
 Semi-Direct transformation.
 ModeAB=           4 MOrb=            16 LenV=    1072639236
 LASXX=     48528660 LTotXX=    48528660 LenRXX=    97827436
 LTotAB=    49298776 MaxLAS=    77837280 LenRXY=           0
 NonZer=   146356096 LenScr=   220395520 LnRSAI=    77837280
 LnScr1=   117514240 LExtra=           0 Total=    513574476
 MaxDsk=          -1 SrtSym=           T ITran=            4
 DoSDTr:  NPSUse=  8
 JobTyp=0 Pass  1:  I=   1 to  16.
 (rs|ai) integrals will be sorted in core.
 Complete sort for first half transformation.
 First half transformation complete.
 Begin second half transformation for I=  10.
 Complete sort for second half transformation.
 Second half transformation complete.
 SymMOI:  orbitals are not symmetric.
 Spin components of T(2) and E(2):
     alpha-alpha T2 =       0.2569630500D-01 E2=     -0.9902278439D-01
     alpha-beta  T2 =       0.1416030868D+00 E2=     -0.5544644941D+00
     beta-beta   T2 =       0.2569630500D-01 E2=     -0.9902278439D-01
 ANorm=    0.1092243424D+01
 E2 =    -0.7525100629D+00 EUMP2 =    -0.29036402489528D+04
 Leave Link  804 at Fri Sep 17 08:33:49 2021, MaxMem= 1073741824 cpu:     101.5
 (Enter /home/matheus/g09/l913.exe)
 CIDS:  MDV=  1073741824.
 Frozen-core window:  NFC=  11 NFV=   0.
 IFCWin=0 IBDFC=1 NFBD=     0     0 NFCmp=     0     0 NFFFC=     0     0
 Using DD3R+UMP44R for 1st iteration, S=T.
 Using DD4RQ for 2nd and later iterations.
 R2 and R3 integrals will be kept in memory, NReq=   699641945.
 Symmetry not used in FoFDir.
 MinBra= 0 MaxBra= 3 Meth= 1.
 IRaf=       0 NMat=   1 IRICut=       1 DoRegI=T DoRafI=F ISym2E= 0 JSym2E=0.
 MP4(SDTQ)
 =========
 DD1Dir will call FoFMem   1 times, MxPair=       272
 NAB=   136 NAA=     0 NBB=     0.
 MP4(D)= -0.14985521D-01
 MP4(S)= -0.63681374D-02
 MP4(R+Q)=  0.15144091D-01
 T4(AAA)= -0.10078034D-02
 T4(AAB)= -0.13949638D-01
 Time for triples=     2923.81 seconds.
 MP4(T)=   -0.29914883D-01
 E3=       -0.11697029D-01        EUMP3=      -0.29036519460D+04
 E4(DQ)=    0.15856953D-03        UMP4(DQ)=   -0.29036517874D+04
 E4(SDQ)=  -0.62095678D-02        UMP4(SDQ)=  -0.29036581555D+04
 E4(SDTQ)= -0.36124451D-01        UMP4(SDTQ)= -0.29036880704D+04
 VARIATIONAL ENERGIES WITH THE FIRST-ORDER WAVEFUNCTION:
 E(VAR1)=  -0.29035283171D+04     E(CISD,4)=  -0.29035280684D+04
 Largest amplitude= 1.79D-02
 Leave Link  913 at Fri Sep 17 08:40:26 2021, MaxMem= 1073741824 cpu:    3133.7
 (Enter /home/matheus/g09/l601.exe)
 Copying SCF densities to generalized density rwf, IOpCl= 0 IROHF=0.

 **********************************************************************

            Population analysis using the SCF density.

 **********************************************************************

 Orbital symmetries:
       Occupied  (A) (A) (A) (A) (A) (A) (A) (A) (A) (A) (A) (A)
                 (A) (A) (A) (A) (A) (A) (A) (A) (A) (A) (A) (A)
                 (A) (A) (A)
       Virtual   (A) (A) (A) (A) (A) (A) (A) (A) (A) (A) (A) (A)
                 (A) (A) (A) (A) (A) (A) (A) (A) (A) (A) (A) (A)
                 (A) (A) (A) (A) (A) (A) (A) (A) (A) (A) (A) (A)
                 (A) (A) (A) (A) (A) (A) (A) (A) (A) (A) (A) (A)
                 (A) (A) (A) (A) (A) (A) (A) (A) (A) (A) (A) (A)
                 (A) (A) (A) (A) (A) (A) (A) (A) (A) (A) (A) (A)
                 (A) (A) (A) (A) (A) (A) (A) (A) (A) (A) (A) (A)
                 (A) (A) (A) (A) (A) (A) (A) (A) (A) (A) (A) (A)
                 (A) (A) (A) (A) (A) (A) (A) (A) (A) (A) (A) (A)
                 (A) (A) (A) (A) (A) (A) (A) (A) (A) (A) (A) (A)
                 (A) (A) (A) (A) (A) (A) (A) (A) (A) (A) (A) (A)
                 (A) (A) (A) (A) (A) (A) (A) (A) (A) (A) (A) (A)
                 (A) (A) (A) (A) (A) (A) (A) (A) (A) (A) (A) (A)
                 (A) (A) (A) (A) (A) (A) (A) (A) (A) (A) (A) (A)
                 (A) (A)
 The electronic state is 1-A.
 Alpha  occ. eigenvalues -- -520.17465 -69.91207 -63.01865 -63.01864 -63.01863
 Alpha  occ. eigenvalues --  -20.63193 -20.62985 -10.85860  -8.34069  -8.34058
 Alpha  occ. eigenvalues --   -8.34053  -3.83448  -3.83445  -3.83438  -3.83425
 Alpha  occ. eigenvalues --   -3.83425  -1.46890  -1.21779  -1.16271  -0.72057
 Alpha  occ. eigenvalues --   -0.70325  -0.61128  -0.53507  -0.53324  -0.53283
 Alpha  occ. eigenvalues --   -0.51478  -0.48031
 Alpha virt. eigenvalues --    0.03595   0.04407   0.09146   0.09660   0.11553
 Alpha virt. eigenvalues --    0.12742   0.14177   0.15358   0.16650   0.19007
 Alpha virt. eigenvalues --    0.19117   0.20810   0.21812   0.24163   0.27177
 Alpha virt. eigenvalues --    0.27628   0.28647   0.30536   0.32289   0.33912
 Alpha virt. eigenvalues --    0.34733   0.36604   0.38010   0.39625   0.41421
 Alpha virt. eigenvalues --    0.43191   0.45788   0.48946   0.56054   0.57581
 Alpha virt. eigenvalues --    0.61067   0.63837   0.67458   0.71671   0.73193
 Alpha virt. eigenvalues --    0.76882   0.77549   0.79954   0.80533   0.81388
 Alpha virt. eigenvalues --    0.83019   0.84597   0.84927   0.85673   0.86984
 Alpha virt. eigenvalues --    0.88448   0.90340   0.91744   0.93169   0.95164
 Alpha virt. eigenvalues --    0.96703   0.98739   1.00522   1.01313   1.02257
 Alpha virt. eigenvalues --    1.02366   1.07172   1.09674   1.11608   1.14160
 Alpha virt. eigenvalues --    1.14426   1.15779   1.19280   1.22416   1.24137
 Alpha virt. eigenvalues --    1.29561   1.29870   1.34021   1.35891   1.41203
 Alpha virt. eigenvalues --    1.48089   1.51703   1.56624   1.60160   1.67903
 Alpha virt. eigenvalues --    1.76008   1.83243   1.95920   2.01946   2.03000
 Alpha virt. eigenvalues --    2.12944   2.14655   2.23610   2.24389   2.30812
 Alpha virt. eigenvalues --    2.31641   2.36239   2.37075   2.38584   2.41767
 Alpha virt. eigenvalues --    2.44762   2.46488   2.47422   2.51709   2.52053
 Alpha virt. eigenvalues --    2.53957   2.54712   2.56697   2.58826   2.60560
 Alpha virt. eigenvalues --    2.66270   2.68411   2.68884   2.69097   2.71891
 Alpha virt. eigenvalues --    2.72417   2.75195   2.79090   2.80045   2.82388
 Alpha virt. eigenvalues --    2.86282   2.89631   2.92327   2.98978   3.04300
 Alpha virt. eigenvalues --    3.09327   3.21703   3.25172   3.30708   3.77418
 Alpha virt. eigenvalues --    3.84272   4.10818   4.15500   4.19458   4.25740
 Alpha virt. eigenvalues --    4.31132   4.35960   4.39480   4.42106   4.48594
 Alpha virt. eigenvalues --    4.52762   4.61462   4.72214   4.81222   4.94565
 Alpha virt. eigenvalues --    5.09347   5.20228   5.30535   5.36591   5.38110
 Alpha virt. eigenvalues --    5.47447   5.78900   6.15616   6.38947   6.41373
 Alpha virt. eigenvalues --    6.45585   6.62772   6.68005   6.77181   6.89039
 Alpha virt. eigenvalues --    6.96186   7.13189   7.16623   7.19419   7.21297
 Alpha virt. eigenvalues --    7.23450   7.26224   7.27073   7.30265   7.37493
 Alpha virt. eigenvalues --    7.44862   7.52921   7.57936   7.80390   8.11032
 Alpha virt. eigenvalues --    8.19590   8.48078   8.48843  14.48439  15.29650
          Condensed to atoms (all electrons):
              1          2          3          4          5
     1  O    8.108908  -0.072111   0.248368  -0.009627  -0.007228
     2  O   -0.072111   8.135059  -0.003955   0.232139  -0.004324
     3  H    0.248368  -0.003955   0.486470   0.003873   0.000117
     4  H   -0.009627   0.232139   0.003873   0.476544   0.003513
     5  Kr  -0.007228  -0.004324   0.000117   0.003513  36.011492
 Mulliken atomic charges:
              1
     1  O   -0.268309
     2  O   -0.286807
     3  H    0.265126
     4  H    0.293558
     5  Kr  -0.003568
 Sum of Mulliken atomic charges =   0.00000
 Mulliken charges with hydrogens summed into heavy atoms:
              1
     1  O   -0.003183
     2  O    0.006751
     5  Kr  -0.003568
 Sum of Mulliken charges with hydrogens summed into heavy atoms =   0.00000
          Condensed to fragments (all electrons):
     1       0.003568
     2      -0.003568
 Electronic spatial extent (au):  <R**2>=            622.9889
 Charge=              0.0000 electrons
 Dipole moment (field-independent basis, Debye):
    X=              1.5363    Y=             -0.2860    Z=              0.8360  Tot=              1.7723
 Quadrupole moment (field-independent basis, Debye-Ang):
   XX=            -35.5814   YY=            -27.5494   ZZ=            -28.7001
   XY=              2.2669   XZ=             -2.7698   YZ=             -2.9880
 Traceless Quadrupole moment (field-independent basis, Debye-Ang):
   XX=             -4.9711   YY=              3.0609   ZZ=              1.9102
   XY=              2.2669   XZ=             -2.7698   YZ=             -2.9880
 Octapole moment (field-independent basis, Debye-Ang**2):
  XXX=             41.7506  YYY=             -1.1107  ZZZ=              1.0837  XYY=              4.3082
  XXY=             -8.4332  XXZ=              8.0469  XZZ=              5.2399  YZZ=             -1.4202
  YYZ=              1.4706  XYZ=              6.2944
 Hexadecapole moment (field-independent basis, Debye-Ang**3):
 XXXX=           -613.2229 YYYY=            -61.3854 ZZZZ=            -29.5023 XXXY=             23.2436
 XXXZ=            -22.2531 YYYX=              4.8552 YYYZ=             -4.5428 ZZZX=             -2.9021
 ZZZY=             -2.6394 XXYY=           -100.4805 XXZZ=            -92.8721 YYZZ=            -15.1683
 XXYZ=            -14.0390 YYXZ=             -4.3909 ZZXY=              3.5055
 N-N= 1.335646801883D+02 E-N=-7.207613331585D+03  KE= 2.902583221472D+03
 Leave Link  601 at Fri Sep 17 08:40:26 2021, MaxMem= 1073741824 cpu:       0.5
 (Enter /home/matheus/g09/l122.exe)
 Counterpoise: doing DCBS calculation for fragment   1 NewBq=T
 Leave Link  122 at Fri Sep 17 08:40:26 2021, MaxMem= 1073741824 cpu:       0.0
 (Enter /home/matheus/g09/l301.exe)
 Basis read from rwf:  (5D, 7F)
 No pseudopotential information found on rwf file.
 There are   197 symmetry adapted basis functions of A   symmetry.
 Integral buffers will be    131072 words long.
 Raffenetti 1 integral format.
 Two-electron integral symmetry is turned on.
   197 basis functions,   415 primitive gaussians,   229 cartesian basis functions
     9 alpha electrons        9 beta electrons
       nuclear repulsion energy        36.6544597899 Hartrees.
 IExCor=    0 DFT=F Ex=HF Corr=None ExCW=0 ScaHFX=  1.000000
 ScaDFX=  1.000000  1.000000  1.000000  1.000000 ScalE2=  1.000000  1.000000
 IRadAn=      5 IRanWt=     -1 IRanGd=            0 ICorTp=0
 NAtoms=    5 NActive=    5 NUniq=    5 SFac= 1.00D+00 NAtFMM=   60 NAOKFM=F Big=F
 No density basis found on file   718.
 Leave Link  301 at Fri Sep 17 08:40:26 2021, MaxMem= 1073741824 cpu:       0.2
 (Enter /home/matheus/g09/l302.exe)
 NPDir=0 NMtPBC=     1 NCelOv=     1 NCel=       1 NClECP=     1 NCelD=      1
         NCelK=      1 NCelE2=     1 NClLst=     1 CellRange=     0.0.
 One-electron integrals computed using PRISM.
 NBasis=   197 RedAO= T  NBF=   197
 NBsUse=   197 1.00D-06 NBFU=   197
 Leave Link  302 at Fri Sep 17 08:40:26 2021, MaxMem= 1073741824 cpu:       0.8
 (Enter /home/matheus/g09/l303.exe)
 DipDrv:  MaxL=1.
 Leave Link  303 at Fri Sep 17 08:40:26 2021, MaxMem= 1073741824 cpu:       0.2
 (Enter /home/matheus/g09/l401.exe)
 Harris functional with IExCor=  205 diagonalized for initial guess.
 ExpMin= 2.53D-02 ExpMax= 1.17D+07 ExpMxC= 1.33D+04 IAcc=3 IRadAn=         5 AccDes= 0.00D+00
 HarFok:  IExCor=  205 AccDes= 0.00D+00 IRadAn=         5 IDoV= 1
 ScaDFX=  1.000000  1.000000  1.000000  1.000000
 FoFCou: FMM=F IPFlag=           0 FMFlag=      100000 FMFlg1=           0
         NFxFlg=           0 DoJE=T BraDBF=F KetDBF=T FulRan=T
         Omega=  0.000000  0.000000  1.000000  0.000000  0.000000 ICntrl=     500 IOpCl=  0
         NMat0=    1 NMatS0=    1 NMatT0=    0 NMatD0=    1 NMtDS0=    0 NMtDT0=    0
         I1Cent=           4 NGrid=           0.
 Petite list used in FoFCou.
 Harris En= -150.930279577162    
 Initial guess orbital symmetries:
       Occupied  (A) (A) (A) (A) (A) (A) (A) (A) (A)
       Virtual   (A) (A) (A) (A) (A) (A) (A) (A) (A) (A) (A) (A)
                 (A) (A) (A) (A) (A) (A) (A) (A) (A) (A) (A) (A)
                 (A) (A) (A) (A) (A) (A) (A) (A) (A) (A) (A) (A)
                 (A) (A) (A) (A) (A) (A) (A) (A) (A) (A) (A) (A)
                 (A) (A) (A) (A) (A) (A) (A) (A) (A) (A) (A) (A)
                 (A) (A) (A) (A) (A) (A) (A) (A) (A) (A) (A) (A)
                 (A) (A) (A) (A) (A) (A) (A) (A) (A) (A) (A) (A)
                 (A) (A) (A) (A) (A) (A) (A) (A) (A) (A) (A) (A)
                 (A) (A) (A) (A) (A) (A) (A) (A) (A) (A) (A) (A)
                 (A) (A) (A) (A) (A) (A) (A) (A) (A) (A) (A) (A)
                 (A) (A) (A) (A) (A) (A) (A) (A) (A) (A) (A) (A)
                 (A) (A) (A) (A) (A) (A) (A) (A) (A) (A) (A) (A)
                 (A) (A) (A) (A) (A) (A) (A) (A) (A) (A) (A) (A)
                 (A) (A) (A) (A) (A) (A) (A) (A) (A) (A) (A) (A)
                 (A) (A) (A) (A) (A) (A) (A) (A) (A) (A) (A) (A)
                 (A) (A) (A) (A) (A) (A) (A) (A)
 The electronic state of the initial guess is 1-A.
 Leave Link  401 at Fri Sep 17 08:40:26 2021, MaxMem= 1073741824 cpu:       2.0
 (Enter /home/matheus/g09/l502.exe)
 Closed shell SCF:
 Requested convergence on RMS density matrix=1.00D-08 within 128 cycles.
 Requested convergence on MAX density matrix=1.00D-06.
 Requested convergence on             energy=1.00D-06.
 No special actions if energy rises.
 Using DIIS extrapolation, IDIIS=  1040.
 Integral symmetry usage will be decided dynamically.
 Keep R1 ints in memory in canonical form, NReq=353041626.
 IEnd=      178947 IEndB=      178947 NGot=  1073741824 MDV=   726852880
 LenX=   726852880 LenY=   726799998
 Symmetry not used in FoFDir.
 MinBra= 0 MaxBra= 3 Meth= 1.
 IRaf=       0 NMat=   1 IRICut=       1 DoRegI=T DoRafI=F ISym2E= 0 JSym2E=0.

 Cycle   1  Pass 1  IDiag  1:
 E= -150.782334450853    
 DIIS: error= 1.98D-02 at cycle   1 NSaved=   1.
 NSaved= 1 IEnMin= 1 EnMin= -150.782334450853     IErMin= 1 ErrMin= 1.98D-02
 ErrMax= 1.98D-02 EMaxC= 1.00D-01 BMatC= 2.10D-01 BMatP= 2.10D-01
 IDIUse=3 WtCom= 8.02D-01 WtEn= 1.98D-01
 Coeff-Com:  0.100D+01
 Coeff-En:   0.100D+01
 Coeff:      0.100D+01
 Gap=     0.706 Goal=   None    Shift=    0.000
 GapD=    0.706 DampG=2.000 DampE=0.500 DampFc=1.0000 IDamp=-1.
 RMSDP=1.03D-03 MaxDP=3.48D-02              OVMax= 5.96D-02

 Cycle   2  Pass 1  IDiag  1:
 E= -150.829376712096     Delta-E=       -0.047042261243 Rises=F Damp=F
 DIIS: error= 5.67D-03 at cycle   2 NSaved=   2.
 NSaved= 2 IEnMin= 2 EnMin= -150.829376712096     IErMin= 2 ErrMin= 5.67D-03
 ErrMax= 5.67D-03 EMaxC= 1.00D-01 BMatC= 1.28D-02 BMatP= 2.10D-01
 IDIUse=3 WtCom= 9.43D-01 WtEn= 5.67D-02
 Coeff-Com:  0.849D-01 0.915D+00
 Coeff-En:   0.000D+00 0.100D+01
 Coeff:      0.801D-01 0.920D+00
 Gap=     0.537 Goal=   None    Shift=    0.000
 RMSDP=4.54D-04 MaxDP=2.54D-02 DE=-4.70D-02 OVMax= 2.53D-02

 Cycle   3  Pass 1  IDiag  1:
 E= -150.835582563350     Delta-E=       -0.006205851255 Rises=F Damp=F
 DIIS: error= 2.21D-03 at cycle   3 NSaved=   3.
 NSaved= 3 IEnMin= 3 EnMin= -150.835582563350     IErMin= 3 ErrMin= 2.21D-03
 ErrMax= 2.21D-03 EMaxC= 1.00D-01 BMatC= 1.95D-03 BMatP= 1.28D-02
 IDIUse=3 WtCom= 9.78D-01 WtEn= 2.21D-02
 Coeff-Com: -0.206D-01 0.262D+00 0.759D+00
 Coeff-En:   0.000D+00 0.000D+00 0.100D+01
 Coeff:     -0.202D-01 0.256D+00 0.764D+00
 Gap=     0.510 Goal=   None    Shift=    0.000
 RMSDP=9.96D-05 MaxDP=3.41D-03 DE=-6.21D-03 OVMax= 8.40D-03

 Cycle   4  Pass 1  IDiag  1:
 E= -150.836799514665     Delta-E=       -0.001216951315 Rises=F Damp=F
 DIIS: error= 2.27D-04 at cycle   4 NSaved=   4.
 NSaved= 4 IEnMin= 4 EnMin= -150.836799514665     IErMin= 4 ErrMin= 2.27D-04
 ErrMax= 2.27D-04 EMaxC= 1.00D-01 BMatC= 1.39D-05 BMatP= 1.95D-03
 IDIUse=3 WtCom= 9.98D-01 WtEn= 2.27D-03
 Coeff-Com: -0.147D-02-0.141D-01 0.137D-02 0.101D+01
 Coeff-En:   0.000D+00 0.000D+00 0.000D+00 0.100D+01
 Coeff:     -0.146D-02-0.141D-01 0.137D-02 0.101D+01
 Gap=     0.511 Goal=   None    Shift=    0.000
 RMSDP=1.49D-05 MaxDP=4.22D-04 DE=-1.22D-03 OVMax= 1.29D-03

 Cycle   5  Pass 1  IDiag  1:
 E= -150.836819702508     Delta-E=       -0.000020187843 Rises=F Damp=F
 DIIS: error= 8.24D-05 at cycle   5 NSaved=   5.
 NSaved= 5 IEnMin= 5 EnMin= -150.836819702508     IErMin= 5 ErrMin= 8.24D-05
 ErrMax= 8.24D-05 EMaxC= 1.00D-01 BMatC= 1.47D-06 BMatP= 1.39D-05
 IDIUse=1 WtCom= 1.00D+00 WtEn= 0.00D+00
 Coeff-Com:  0.158D-02-0.177D-01-0.563D-01-0.120D+00 0.119D+01
 Coeff:      0.158D-02-0.177D-01-0.563D-01-0.120D+00 0.119D+01
 Gap=     0.511 Goal=   None    Shift=    0.000
 RMSDP=8.32D-06 MaxDP=2.57D-04 DE=-2.02D-05 OVMax= 7.20D-04

 Cycle   6  Pass 1  IDiag  1:
 E= -150.836823076337     Delta-E=       -0.000003373829 Rises=F Damp=F
 DIIS: error= 3.18D-05 at cycle   6 NSaved=   6.
 NSaved= 6 IEnMin= 6 EnMin= -150.836823076337     IErMin= 6 ErrMin= 3.18D-05
 ErrMax= 3.18D-05 EMaxC= 1.00D-01 BMatC= 1.78D-07 BMatP= 1.47D-06
 IDIUse=1 WtCom= 1.00D+00 WtEn= 0.00D+00
 Coeff-Com:  0.398D-03-0.305D-02-0.106D-01-0.640D-01 0.204D+00 0.873D+00
 Coeff:      0.398D-03-0.305D-02-0.106D-01-0.640D-01 0.204D+00 0.873D+00
 Gap=     0.511 Goal=   None    Shift=    0.000
 RMSDP=2.20D-06 MaxDP=9.69D-05 DE=-3.37D-06 OVMax= 2.38D-04

 Cycle   7  Pass 1  IDiag  1:
 E= -150.836823367182     Delta-E=       -0.000000290845 Rises=F Damp=F
 DIIS: error= 1.31D-05 at cycle   7 NSaved=   7.
 NSaved= 7 IEnMin= 7 EnMin= -150.836823367182     IErMin= 7 ErrMin= 1.31D-05
 ErrMax= 1.31D-05 EMaxC= 1.00D-01 BMatC= 4.53D-08 BMatP= 1.78D-07
 IDIUse=1 WtCom= 1.00D+00 WtEn= 0.00D+00
 Coeff-Com: -0.278D-03 0.351D-02 0.113D-01 0.154D-01-0.255D+00 0.221D+00
 Coeff-Com:  0.100D+01
 Coeff:     -0.278D-03 0.351D-02 0.113D-01 0.154D-01-0.255D+00 0.221D+00
 Coeff:      0.100D+01
 Gap=     0.511 Goal=   None    Shift=    0.000
 RMSDP=1.60D-06 MaxDP=5.22D-05 DE=-2.91D-07 OVMax= 2.00D-04

 Cycle   8  Pass 1  IDiag  1:
 E= -150.836823467278     Delta-E=       -0.000000100096 Rises=F Damp=F
 DIIS: error= 3.81D-06 at cycle   8 NSaved=   8.
 NSaved= 8 IEnMin= 8 EnMin= -150.836823467278     IErMin= 8 ErrMin= 3.81D-06
 ErrMax= 3.81D-06 EMaxC= 1.00D-01 BMatC= 4.27D-09 BMatP= 4.53D-08
 IDIUse=1 WtCom= 1.00D+00 WtEn= 0.00D+00
 Coeff-Com:  0.112D-03-0.160D-02-0.549D-02-0.444D-02 0.128D+00-0.200D+00
 Coeff-Com: -0.560D+00 0.164D+01
 Coeff:      0.112D-03-0.160D-02-0.549D-02-0.444D-02 0.128D+00-0.200D+00
 Coeff:     -0.560D+00 0.164D+01
 Gap=     0.511 Goal=   None    Shift=    0.000
 RMSDP=8.05D-07 MaxDP=1.79D-05 DE=-1.00D-07 OVMax= 1.27D-04

 Cycle   9  Pass 1  IDiag  1:
 E= -150.836823488228     Delta-E=       -0.000000020950 Rises=F Damp=F
 DIIS: error= 1.26D-06 at cycle   9 NSaved=   9.
 NSaved= 9 IEnMin= 9 EnMin= -150.836823488228     IErMin= 9 ErrMin= 1.26D-06
 ErrMax= 1.26D-06 EMaxC= 1.00D-01 BMatC= 6.26D-10 BMatP= 4.27D-09
 IDIUse=1 WtCom= 1.00D+00 WtEn= 0.00D+00
 Coeff-Com: -0.986D-05 0.240D-03 0.106D-02-0.105D-02-0.224D-01 0.702D-01
 Coeff-Com:  0.125D+00-0.906D+00 0.173D+01
 Coeff:     -0.986D-05 0.240D-03 0.106D-02-0.105D-02-0.224D-01 0.702D-01
 Coeff:      0.125D+00-0.906D+00 0.173D+01
 Gap=     0.511 Goal=   None    Shift=    0.000
 RMSDP=4.05D-07 MaxDP=9.55D-06 DE=-2.09D-08 OVMax= 6.75D-05

 Cycle  10  Pass 1  IDiag  1:
 E= -150.836823491714     Delta-E=       -0.000000003486 Rises=F Damp=F
 DIIS: error= 3.06D-07 at cycle  10 NSaved=  10.
 NSaved=10 IEnMin=10 EnMin= -150.836823491714     IErMin=10 ErrMin= 3.06D-07
 ErrMax= 3.06D-07 EMaxC= 1.00D-01 BMatC= 2.96D-11 BMatP= 6.26D-10
 IDIUse=1 WtCom= 1.00D+00 WtEn= 0.00D+00
 Coeff-Com: -0.584D-05 0.396D-04 0.531D-04 0.146D-02-0.476D-02-0.944D-02
 Coeff-Com:  0.758D-02 0.203D+00-0.651D+00 0.145D+01
 Coeff:     -0.584D-05 0.396D-04 0.531D-04 0.146D-02-0.476D-02-0.944D-02
 Coeff:      0.758D-02 0.203D+00-0.651D+00 0.145D+01
 Gap=     0.511 Goal=   None    Shift=    0.000
 RMSDP=7.06D-08 MaxDP=1.51D-06 DE=-3.49D-09 OVMax= 1.03D-05

 Cycle  11  Pass 1  IDiag  1:
 E= -150.836823491820     Delta-E=       -0.000000000106 Rises=F Damp=F
 DIIS: error= 8.20D-08 at cycle  11 NSaved=  11.
 NSaved=11 IEnMin=11 EnMin= -150.836823491820     IErMin=11 ErrMin= 8.20D-08
 ErrMax= 8.20D-08 EMaxC= 1.00D-01 BMatC= 7.77D-13 BMatP= 2.96D-11
 IDIUse=1 WtCom= 1.00D+00 WtEn= 0.00D+00
 Coeff-Com:  0.139D-05-0.202D-04-0.669D-04-0.279D-04 0.155D-02-0.203D-02
 Coeff-Com: -0.639D-02 0.120D-01 0.153D-01-0.207D+00 0.119D+01
 Coeff:      0.139D-05-0.202D-04-0.669D-04-0.279D-04 0.155D-02-0.203D-02
 Coeff:     -0.639D-02 0.120D-01 0.153D-01-0.207D+00 0.119D+01
 Gap=     0.511 Goal=   None    Shift=    0.000
 RMSDP=7.97D-09 MaxDP=1.50D-07 DE=-1.06D-10 OVMax= 8.96D-07

 SCF Done:  E(RHF) =  -150.836823492     A.U. after   11 cycles
             Convg  =    0.7968D-08             -V/T =  2.0021
 KE= 1.505257763768D+02 PE=-4.315360510266D+02 EE= 9.351899136816D+01
 Leave Link  502 at Fri Sep 17 08:40:35 2021, MaxMem= 1073741824 cpu:      70.8
 (Enter /home/matheus/g09/l801.exe)
 Windowed orbitals will be sorted by symmetry type.
 ExpMin= 2.53D-02 ExpMax= 1.17D+07 ExpMxC= 1.33D+04 IAcc=3 IRadAn=         5 AccDes= 0.00D+00
 HarFok:  IExCor=  205 AccDes= 0.00D+00 IRadAn=         5 IDoV=-2
 ScaDFX=  1.000000  1.000000  1.000000  1.000000
 Largest valence mixing into a core orbital is  1.44D-04
 Largest core mixing into a valence orbital is  2.60D-05
 Range of M.O.s used for correlation:     3   197
 NBasis=   197 NAE=     9 NBE=     9 NFC=     2 NFV=     0
 NROrb=    195 NOA=     7 NOB=     7 NVA=   188 NVB=   188

 **** Warning!!: The largest alpha MO coefficient is  0.11625734D+02

 Leave Link  801 at Fri Sep 17 08:40:35 2021, MaxMem= 1073741824 cpu:       0.4
 (Enter /home/matheus/g09/l804.exe)
 Closed-shell transformation, MDV=  1073741824 ITran=4 ISComp=1.
 Semi-Direct transformation.
 ModeAB=           4 MOrb=             7 LenV=    1072559253
 LASXX=     25261509 LTotXX=    25261509 LenRXX=    50908501
 LTotAB=    25646992 MaxLAS=    35701575 LenRXY=           0
 NonZer=    76170010 LenScr=   115027968 LnRSAI=    35701575
 LnScr1=    54309888 LExtra=           0 Total=    255947932
 MaxDsk=          -1 SrtSym=           T ITran=            4
 DoSDTr:  NPSUse=  8
 JobTyp=0 Pass  1:  I=   1 to   7.
 (rs|ai) integrals will be sorted in core.
 Complete sort for first half transformation.
 First half transformation complete.
 Complete sort for second half transformation.
 Second half transformation complete.
 SymMOI:  orbitals are not symmetric.
 Spin components of T(2) and E(2):
     alpha-alpha T2 =       0.1598687531D-01 E2=     -0.6281470297D-01
     alpha-beta  T2 =       0.9317938586D-01 E2=     -0.3819323754D+00
     beta-beta   T2 =       0.1598687531D-01 E2=     -0.6281470297D-01
 ANorm=    0.1060732359D+01
 E2 =    -0.5075617814D+00 EUMP2 =    -0.15134438527319D+03
 Leave Link  804 at Fri Sep 17 08:40:43 2021, MaxMem= 1073741824 cpu:      56.5
 (Enter /home/matheus/g09/l913.exe)
 CIDS:  MDV=  1073741824.
 Frozen-core window:  NFC=   2 NFV=   0.
 IFCWin=0 IBDFC=1 NFBD=     0     0 NFCmp=     0     0 NFFFC=     0     0
 Using DD3R+UMP44R for 1st iteration, S=T.
 Using DD4RQ for 2nd and later iterations.
 R2 and R3 integrals will be kept in memory, NReq=   699641945.
 Symmetry not used in FoFDir.
 MinBra= 0 MaxBra= 3 Meth= 1.
 IRaf=       0 NMat=   1 IRICut=       1 DoRegI=T DoRafI=F ISym2E= 0 JSym2E=0.
 MP4(SDTQ)
 =========
 DD1Dir will call FoFMem   1 times, MxPair=        56
 NAB=    28 NAA=     0 NBB=     0.
 MP4(D)= -0.11285811D-01
 MP4(S)= -0.51994782D-02
 MP4(R+Q)=  0.10753750D-01
 T4(AAA)= -0.65753243D-03
 T4(AAB)= -0.10249072D-01
 Time for triples=      487.86 seconds.
 MP4(T)=   -0.21813208D-01
 E3=       -0.20547286D-02        EUMP3=      -0.15134644000D+03
 E4(DQ)=   -0.53206098D-03        UMP4(DQ)=   -0.15134697206D+03
 E4(SDQ)=  -0.57315392D-02        UMP4(SDQ)=  -0.15135217154D+03
 E4(SDTQ)= -0.27544747D-01        UMP4(SDTQ)= -0.15137398475D+03
 VARIATIONAL ENERGIES WITH THE FIRST-ORDER WAVEFUNCTION:
 E(VAR1)=  -0.15128975429D+03     E(CISD,4)=  -0.15129940234D+03
 Largest amplitude= 2.14D-02
 Leave Link  913 at Fri Sep 17 08:41:53 2021, MaxMem= 1073741824 cpu:     555.2
 (Enter /home/matheus/g09/l601.exe)
 Copying SCF densities to generalized density rwf, IOpCl= 0 IROHF=0.

 **********************************************************************

            Population analysis using the SCF density.

 **********************************************************************

 Orbital symmetries:
       Occupied  (A) (A) (A) (A) (A) (A) (A) (A) (A)
       Virtual   (A) (A) (A) (A) (A) (A) (A) (A) (A) (A) (A) (A)
                 (A) (A) (A) (A) (A) (A) (A) (A) (A) (A) (A) (A)
                 (A) (A) (A) (A) (A) (A) (A) (A) (A) (A) (A) (A)
                 (A) (A) (A) (A) (A) (A) (A) (A) (A) (A) (A) (A)
                 (A) (A) (A) (A) (A) (A) (A) (A) (A) (A) (A) (A)
                 (A) (A) (A) (A) (A) (A) (A) (A) (A) (A) (A) (A)
                 (A) (A) (A) (A) (A) (A) (A) (A) (A) (A) (A) (A)
                 (A) (A) (A) (A) (A) (A) (A) (A) (A) (A) (A) (A)
                 (A) (A) (A) (A) (A) (A) (A) (A) (A) (A) (A) (A)
                 (A) (A) (A) (A) (A) (A) (A) (A) (A) (A) (A) (A)
                 (A) (A) (A) (A) (A) (A) (A) (A) (A) (A) (A) (A)
                 (A) (A) (A) (A) (A) (A) (A) (A) (A) (A) (A) (A)
                 (A) (A) (A) (A) (A) (A) (A) (A) (A) (A) (A) (A)
                 (A) (A) (A) (A) (A) (A) (A) (A) (A) (A) (A) (A)
                 (A) (A) (A) (A) (A) (A) (A) (A) (A) (A) (A) (A)
                 (A) (A) (A) (A) (A) (A) (A) (A)
 The electronic state is 1-A.
 Alpha  occ. eigenvalues --  -20.63341 -20.63079  -1.46972  -1.21860  -0.72092
 Alpha  occ. eigenvalues --   -0.70367  -0.61144  -0.51622  -0.48138
 Alpha virt. eigenvalues --    0.02999   0.04018   0.07242   0.08309   0.10034
 Alpha virt. eigenvalues --    0.10966   0.12686   0.15098   0.16664   0.18472
 Alpha virt. eigenvalues --    0.19332   0.20222   0.22362   0.25241   0.27001
 Alpha virt. eigenvalues --    0.28134   0.31890   0.32662   0.33202   0.34551
 Alpha virt. eigenvalues --    0.35164   0.36822   0.37613   0.40264   0.40964
 Alpha virt. eigenvalues --    0.42392   0.43899   0.45342   0.45936   0.48850
 Alpha virt. eigenvalues --    0.52699   0.56305   0.63532   0.67706   0.71801
 Alpha virt. eigenvalues --    0.74444   0.77511   0.79064   0.80885   0.81271
 Alpha virt. eigenvalues --    0.85346   0.86201   0.90533   0.92166   0.93414
 Alpha virt. eigenvalues --    0.95185   0.96839   0.99385   1.00829   1.01576
 Alpha virt. eigenvalues --    1.02384   1.05081   1.08945   1.09981   1.14013
 Alpha virt. eigenvalues --    1.14693   1.15826   1.19696   1.22308   1.24963
 Alpha virt. eigenvalues --    1.28707   1.29372   1.29753   1.31053   1.31608
 Alpha virt. eigenvalues --    1.32501   1.33183   1.33617   1.37598   1.39957
 Alpha virt. eigenvalues --    1.41961   1.43948   1.44413   1.49437   1.54510
 Alpha virt. eigenvalues --    1.59319   1.60580   1.60938   1.73441   1.79033
 Alpha virt. eigenvalues --    1.87557   1.96612   2.02594   2.04315   2.14273
 Alpha virt. eigenvalues --    2.15328   2.24138   2.25462   2.31791   2.33217
 Alpha virt. eigenvalues --    2.38740   2.42994   2.46631   2.47680   2.57596
 Alpha virt. eigenvalues --    2.59069   2.61603   2.67960   2.75257   2.78207
 Alpha virt. eigenvalues --    2.79402   2.88228   2.97488   3.01182   3.08040
 Alpha virt. eigenvalues --    3.21145   3.24228   3.25702   3.27171   3.28943
 Alpha virt. eigenvalues --    3.34138   3.42626   3.75402   3.77829   3.78038
 Alpha virt. eigenvalues --    3.79491   3.80960   3.81911   3.81995   3.82404
 Alpha virt. eigenvalues --    3.84820   3.88717   3.90284   3.91397   3.92883
 Alpha virt. eigenvalues --    4.05633   4.11643   4.20644   4.25376   4.28859
 Alpha virt. eigenvalues --    4.34858   4.36886   4.43074   4.48586   4.50637
 Alpha virt. eigenvalues --    4.61523   4.72226   4.81238   4.94406   5.09296
 Alpha virt. eigenvalues --    5.20207   5.30496   5.36506   5.38047   5.47364
 Alpha virt. eigenvalues --    5.78832   6.15554   6.38864   6.41323   6.45532
 Alpha virt. eigenvalues --    6.62714   6.67869   6.76930   6.88909   6.96078
 Alpha virt. eigenvalues --    7.13101   7.16569   7.19349   7.21201   7.23375
 Alpha virt. eigenvalues --    7.26160   7.26979   7.30183   7.37308   7.44723
 Alpha virt. eigenvalues --    7.52851   7.57813   7.80302   8.10935   8.19500
 Alpha virt. eigenvalues --    8.47985   8.48745  10.47360  14.48122  14.83112
 Alpha virt. eigenvalues --   14.84677  14.94831  15.29759  29.02349  29.02554
 Alpha virt. eigenvalues --   29.05165  29.07948  29.13375  48.81159 148.30892
 Alpha virt. eigenvalues --  148.33168 148.48692 751.57705
          Condensed to atoms (all electrons):
              1          2          3          4          5
     1  O    8.102510  -0.071746   0.248903  -0.009318   0.001034
     2  O   -0.071746   8.129255  -0.004007   0.234808   0.000789
     3  H    0.248903  -0.004007   0.485996   0.004072  -0.000273
     4  H   -0.009318   0.234808   0.004072   0.472783   0.000354
     5  Kr   0.001034   0.000789  -0.000273   0.000354   0.000225
 Mulliken atomic charges:
              1
     1  O   -0.271383
     2  O   -0.289099
     3  H    0.265309
     4  H    0.297301
     5  Kr  -0.002129
 Sum of Mulliken atomic charges =   0.00000
 Mulliken charges with hydrogens summed into heavy atoms:
              1
     1  O   -0.006073
     2  O    0.008202
     5  Kr  -0.002129
 Sum of Mulliken charges with hydrogens summed into heavy atoms =   0.00000
          Condensed to fragments (all electrons):
     1       0.002129
     2      -0.002129
 Electronic spatial extent (au):  <R**2>=            412.9930
 Charge=              0.0000 electrons
 Dipole moment (field-independent basis, Debye):
    X=              1.4528    Y=             -0.1818    Z=              0.8269  Tot=              1.6815
 Quadrupole moment (field-independent basis, Debye-Ang):
   XX=            -17.9278   YY=             -9.8276   ZZ=            -10.9942
   XY=              2.3614   XZ=             -2.7764   YZ=             -3.0108
 Traceless Quadrupole moment (field-independent basis, Debye-Ang):
   XX=             -5.0112   YY=              3.0889   ZZ=              1.9224
   XY=              2.3614   XZ=             -2.7764   YZ=             -3.0108
 Octapole moment (field-independent basis, Debye-Ang**2):
  XXX=            102.3430  YYY=             -1.3469  ZZZ=              1.1981  XYY=             24.6522
  XXY=             -8.4440  XXZ=              8.0922  XZZ=             25.5954  YZZ=             -1.4979
  YYZ=              1.5059  XYZ=              6.2909
 Hexadecapole moment (field-independent basis, Debye-Ang**3):
 XXXX=           -453.6951 YYYY=            -42.9034 ZZZZ=            -11.0593 XXXY=             23.0619
 XXXZ=            -22.1515 YYYX=              4.5922 YYYZ=             -4.5822 ZZZX=             -2.7691
 ZZZY=             -2.6765 XXYY=            -70.8180 XXZZ=            -63.2705 YYZZ=             -9.0107
 XXYZ=            -14.0494 YYXZ=             -4.3490 ZZXY=              3.4085
 N-N= 3.665445978986D+01 E-N=-4.315360489103D+02  KE= 1.505257763768D+02
 Leave Link  601 at Fri Sep 17 08:41:53 2021, MaxMem= 1073741824 cpu:       0.3
 (Enter /home/matheus/g09/l122.exe)
 Counterpoise: doing DCBS calculation for fragment   2 NewBq=T
 Leave Link  122 at Fri Sep 17 08:41:53 2021, MaxMem= 1073741824 cpu:       0.0
 (Enter /home/matheus/g09/l301.exe)
 Basis read from rwf:  (5D, 7F)
 No pseudopotential information found on rwf file.
 There are   197 symmetry adapted basis functions of A   symmetry.
 Integral buffers will be    131072 words long.
 Raffenetti 1 integral format.
 Two-electron integral symmetry is turned on.
   197 basis functions,   415 primitive gaussians,   229 cartesian basis functions
    18 alpha electrons       18 beta electrons
       nuclear repulsion energy         0.0000000000 Hartrees.
 IExCor=    0 DFT=F Ex=HF Corr=None ExCW=0 ScaHFX=  1.000000
 ScaDFX=  1.000000  1.000000  1.000000  1.000000 ScalE2=  1.000000  1.000000
 IRadAn=      5 IRanWt=     -1 IRanGd=            0 ICorTp=0
 NAtoms=    5 NActive=    5 NUniq=    5 SFac= 1.00D+00 NAtFMM=   60 NAOKFM=F Big=F
 No density basis found on file   718.
 Leave Link  301 at Fri Sep 17 08:41:53 2021, MaxMem= 1073741824 cpu:       0.2
 (Enter /home/matheus/g09/l302.exe)
 NPDir=0 NMtPBC=     1 NCelOv=     1 NCel=       1 NClECP=     1 NCelD=      1
         NCelK=      1 NCelE2=     1 NClLst=     1 CellRange=     0.0.
 One-electron integrals computed using PRISM.
 NBasis=   197 RedAO= T  NBF=   197
 NBsUse=   197 1.00D-06 NBFU=   197
 Leave Link  302 at Fri Sep 17 08:41:54 2021, MaxMem= 1073741824 cpu:       0.8
 (Enter /home/matheus/g09/l303.exe)
 DipDrv:  MaxL=1.
 Leave Link  303 at Fri Sep 17 08:41:54 2021, MaxMem= 1073741824 cpu:       0.2
 (Enter /home/matheus/g09/l401.exe)
 Harris functional with IExCor=  205 diagonalized for initial guess.
 ExpMin= 2.53D-02 ExpMax= 1.17D+07 ExpMxC= 1.33D+04 IAcc=3 IRadAn=         5 AccDes= 0.00D+00
 HarFok:  IExCor=  205 AccDes= 0.00D+00 IRadAn=         5 IDoV= 1
 ScaDFX=  1.000000  1.000000  1.000000  1.000000
 FoFCou: FMM=F IPFlag=           0 FMFlag=      100000 FMFlg1=           0
         NFxFlg=           0 DoJE=T BraDBF=F KetDBF=T FulRan=T
         Omega=  0.000000  0.000000  1.000000  0.000000  0.000000 ICntrl=     500 IOpCl=  0
         NMat0=    1 NMatS0=    1 NMatT0=    0 NMatD0=    1 NMtDS0=    0 NMtDT0=    0
         I1Cent=           4 NGrid=           0.
 Petite list used in FoFCou.
 Harris En= -2751.00468272362    
 Initial guess orbital symmetries:
       Occupied  (A) (A) (A) (A) (A) (A) (A) (A) (A) (A) (A) (A)
                 (A) (A) (A) (A) (A) (A)
       Virtual   (A) (A) (A) (A) (A) (A) (A) (A) (A) (A) (A) (A)
                 (A) (A) (A) (A) (A) (A) (A) (A) (A) (A) (A) (A)
                 (A) (A) (A) (A) (A) (A) (A) (A) (A) (A) (A) (A)
                 (A) (A) (A) (A) (A) (A) (A) (A) (A) (A) (A) (A)
                 (A) (A) (A) (A) (A) (A) (A) (A) (A) (A) (A) (A)
                 (A) (A) (A) (A) (A) (A) (A) (A) (A) (A) (A) (A)
                 (A) (A) (A) (A) (A) (A) (A) (A) (A) (A) (A) (A)
                 (A) (A) (A) (A) (A) (A) (A) (A) (A) (A) (A) (A)
                 (A) (A) (A) (A) (A) (A) (A) (A) (A) (A) (A) (A)
                 (A) (A) (A) (A) (A) (A) (A) (A) (A) (A) (A) (A)
                 (A) (A) (A) (A) (A) (A) (A) (A) (A) (A) (A) (A)
                 (A) (A) (A) (A) (A) (A) (A) (A) (A) (A) (A) (A)
                 (A) (A) (A) (A) (A) (A) (A) (A) (A) (A) (A) (A)
                 (A) (A) (A) (A) (A) (A) (A) (A) (A) (A) (A) (A)
                 (A) (A) (A) (A) (A) (A) (A) (A) (A) (A) (A)
 The electronic state of the initial guess is 1-A.
 Leave Link  401 at Fri Sep 17 08:41:54 2021, MaxMem= 1073741824 cpu:       2.0
 (Enter /home/matheus/g09/l502.exe)
 Closed shell SCF:
 Requested convergence on RMS density matrix=1.00D-08 within 128 cycles.
 Requested convergence on MAX density matrix=1.00D-06.
 Requested convergence on             energy=1.00D-06.
 No special actions if energy rises.
 Using DIIS extrapolation, IDIIS=  1040.
 Integral symmetry usage will be decided dynamically.
 Keep R1 ints in memory in canonical form, NReq=353041626.
 IEnd=      178947 IEndB=      178947 NGot=  1073741824 MDV=   726852880
 LenX=   726852880 LenY=   726799998
 Symmetry not used in FoFDir.
 MinBra= 0 MaxBra= 3 Meth= 1.
 IRaf=       0 NMat=   1 IRICut=       1 DoRegI=T DoRafI=F ISym2E= 0 JSym2E=0.

 Cycle   1  Pass 1  IDiag  1:
 E= -2751.98867679841    
 DIIS: error= 6.06D-02 at cycle   1 NSaved=   1.
 NSaved= 1 IEnMin= 1 EnMin= -2751.98867679841     IErMin= 1 ErrMin= 6.06D-02
 ErrMax= 6.06D-02 EMaxC= 1.00D-01 BMatC= 4.67D-01 BMatP= 4.67D-01
 IDIUse=3 WtCom= 3.94D-01 WtEn= 6.06D-01
 Coeff-Com:  0.100D+01
 Coeff-En:   0.100D+01
 Coeff:      0.100D+01
 Gap=     0.636 Goal=   None    Shift=    0.000
 GapD=    0.636 DampG=2.000 DampE=0.500 DampFc=1.0000 IDamp=-1.
 RMSDP=1.76D-03 MaxDP=1.40D-01              OVMax= 2.84D-02

 Cycle   2  Pass 1  IDiag  1:
 E= -2752.04517374249     Delta-E=       -0.056496944079 Rises=F Damp=F
 DIIS: error= 9.59D-03 at cycle   2 NSaved=   2.
 NSaved= 2 IEnMin= 2 EnMin= -2752.04517374249     IErMin= 2 ErrMin= 9.59D-03
 ErrMax= 9.59D-03 EMaxC= 1.00D-01 BMatC= 2.61D-02 BMatP= 4.67D-01
 IDIUse=3 WtCom= 9.04D-01 WtEn= 9.59D-02
 Coeff-Com:  0.173D+00 0.827D+00
 Coeff-En:   0.000D+00 0.100D+01
 Coeff:      0.157D+00 0.843D+00
 Gap=     0.542 Goal=   None    Shift=    0.000
 RMSDP=5.66D-04 MaxDP=3.77D-02 DE=-5.65D-02 OVMax= 1.49D-02

 Cycle   3  Pass 1  IDiag  1:
 E= -2752.05202720980     Delta-E=       -0.006853467312 Rises=F Damp=F
 DIIS: error= 1.64D-03 at cycle   3 NSaved=   3.
 NSaved= 3 IEnMin= 3 EnMin= -2752.05202720980     IErMin= 3 ErrMin= 1.64D-03
 ErrMax= 1.64D-03 EMaxC= 1.00D-01 BMatC= 7.23D-04 BMatP= 2.61D-02
 IDIUse=3 WtCom= 9.84D-01 WtEn= 1.64D-02
 Coeff-Com: -0.834D-03 0.139D+00 0.862D+00
 Coeff-En:   0.000D+00 0.000D+00 0.100D+01
 Coeff:     -0.820D-03 0.137D+00 0.864D+00
 Gap=     0.555 Goal=   None    Shift=    0.000
 RMSDP=7.10D-05 MaxDP=3.96D-03 DE=-6.85D-03 OVMax= 3.08D-03

 Cycle   4  Pass 1  IDiag  1:
 E= -2752.05224980792     Delta-E=       -0.000222598117 Rises=F Damp=F
 DIIS: error= 5.54D-05 at cycle   4 NSaved=   4.
 NSaved= 4 IEnMin= 4 EnMin= -2752.05224980792     IErMin= 4 ErrMin= 5.54D-05
 ErrMax= 5.54D-05 EMaxC= 1.00D-01 BMatC= 1.02D-06 BMatP= 7.23D-04
 IDIUse=1 WtCom= 1.00D+00 WtEn= 0.00D+00
 Coeff-Com: -0.613D-03-0.181D-01-0.639D-01 0.108D+01
 Coeff:     -0.613D-03-0.181D-01-0.639D-01 0.108D+01
 Gap=     0.554 Goal=   None    Shift=    0.000
 RMSDP=6.48D-06 MaxDP=3.35D-04 DE=-2.23D-04 OVMax= 3.08D-04

 Cycle   5  Pass 1  IDiag  1:
 E= -2752.05225039628     Delta-E=       -0.000000588357 Rises=F Damp=F
 DIIS: error= 4.26D-06 at cycle   5 NSaved=   5.
 NSaved= 5 IEnMin= 5 EnMin= -2752.05225039628     IErMin= 5 ErrMin= 4.26D-06
 ErrMax= 4.26D-06 EMaxC= 1.00D-01 BMatC= 6.59D-09 BMatP= 1.02D-06
 IDIUse=1 WtCom= 1.00D+00 WtEn= 0.00D+00
 Coeff-Com:  0.771D-04 0.252D-03-0.471D-02-0.896D-01 0.109D+01
 Coeff:      0.771D-04 0.252D-03-0.471D-02-0.896D-01 0.109D+01
 Gap=     0.554 Goal=   None    Shift=    0.000
 RMSDP=6.48D-07 MaxDP=3.21D-05 DE=-5.88D-07 OVMax= 3.07D-05

 Cycle   6  Pass 1  IDiag  1:
 E= -2752.05225040289     Delta-E=       -0.000000006618 Rises=F Damp=F
 DIIS: error= 3.11D-07 at cycle   6 NSaved=   6.
 NSaved= 6 IEnMin= 6 EnMin= -2752.05225040289     IErMin= 6 ErrMin= 3.11D-07
 ErrMax= 3.11D-07 EMaxC= 1.00D-01 BMatC= 3.71D-11 BMatP= 6.59D-09
 IDIUse=1 WtCom= 1.00D+00 WtEn= 0.00D+00
 Coeff-Com: -0.343D-05 0.741D-04 0.836D-03 0.191D-04-0.975D-01 0.110D+01
 Coeff:     -0.343D-05 0.741D-04 0.836D-03 0.191D-04-0.975D-01 0.110D+01
 Gap=     0.554 Goal=   None    Shift=    0.000
 RMSDP=5.79D-08 MaxDP=4.62D-06 DE=-6.62D-09 OVMax= 3.33D-06

 Cycle   7  Pass 1  IDiag  1:
 E= -2752.05225040294     Delta-E=       -0.000000000049 Rises=F Damp=F
 DIIS: error= 1.82D-08 at cycle   7 NSaved=   7.
 NSaved= 7 IEnMin= 7 EnMin= -2752.05225040294     IErMin= 7 ErrMin= 1.82D-08
 ErrMax= 1.82D-08 EMaxC= 1.00D-01 BMatC= 1.26D-13 BMatP= 3.71D-11
 IDIUse=1 WtCom= 1.00D+00 WtEn= 0.00D+00
 Coeff-Com:  0.406D-06-0.922D-05-0.113D-03 0.527D-04 0.134D-01-0.181D+00
 Coeff-Com:  0.117D+01
 Coeff:      0.406D-06-0.922D-05-0.113D-03 0.527D-04 0.134D-01-0.181D+00
 Coeff:      0.117D+01
 Gap=     0.554 Goal=   None    Shift=    0.000
 RMSDP=5.58D-09 MaxDP=2.82D-07 DE=-4.91D-11 OVMax= 2.68D-07

 SCF Done:  E(RHF) =  -2752.05225040     A.U. after    7 cycles
             Convg  =    0.5579D-08             -V/T =  2.0000
 KE= 2.752043944118D+03 PE=-6.582560456216D+03 EE= 1.078464261696D+03
 Leave Link  502 at Fri Sep 17 08:42:01 2021, MaxMem= 1073741824 cpu:      58.0
 (Enter /home/matheus/g09/l801.exe)
 Windowed orbitals will be sorted by symmetry type.
 ExpMin= 2.53D-02 ExpMax= 1.17D+07 ExpMxC= 1.33D+04 IAcc=3 IRadAn=         5 AccDes= 0.00D+00
 HarFok:  IExCor=  205 AccDes= 0.00D+00 IRadAn=         5 IDoV=-2
 ScaDFX=  1.000000  1.000000  1.000000  1.000000
 DSYEVD returned Info=          89 IAlg= 4 N=    59 NDim=    59 NE2=    18196822 trying DSYEV.
 Largest valence mixing into a core orbital is  4.55D-05
 Largest core mixing into a valence orbital is  1.52D-05
 Range of M.O.s used for correlation:    10   197
 NBasis=   197 NAE=    18 NBE=    18 NFC=     9 NFV=     0
 NROrb=    188 NOA=     9 NOB=     9 NVA=   179 NVB=   179

 **** Warning!!: The largest alpha MO coefficient is  0.14673240D+02

 Leave Link  801 at Fri Sep 17 08:42:01 2021, MaxMem= 1073741824 cpu:       0.3
 (Enter /home/matheus/g09/l804.exe)
 Closed-shell transformation, MDV=  1073741824 ITran=4 ISComp=1.
 Semi-Direct transformation.
 ModeAB=           4 MOrb=             9 LenV=    1072613744
 LASXX=     28892340 LTotXX=    28892340 LenRXX=    58240341
 LTotAB=    29348001 MaxLAS=    44254260 LenRXY=           0
 NonZer=    87132681 LenScr=   131446784 LnRSAI=    44254260
 LnScr1=    67148800 LExtra=           0 Total=    301090185
 MaxDsk=          -1 SrtSym=           T ITran=            4
 DoSDTr:  NPSUse=  8
 JobTyp=0 Pass  1:  I=   1 to   9.
 (rs|ai) integrals will be sorted in core.
 Complete sort for first half transformation.
 First half transformation complete.
 Complete sort for second half transformation.
 Second half transformation complete.
 SymMOI:  orbitals are not symmetric.
 Spin components of T(2) and E(2):
     alpha-alpha T2 =       0.9492973096D-02 E2=     -0.3566035021D-01
     alpha-beta  T2 =       0.4806301481D-01 E2=     -0.1714842816D+00
     beta-beta   T2 =       0.9492973096D-02 E2=     -0.3566035021D-01
 ANorm=    0.1032980620D+01
 E2 =    -0.2428049820D+00 EUMP2 =    -0.27522950553850D+04
 Leave Link  804 at Fri Sep 17 08:42:09 2021, MaxMem= 1073741824 cpu:      63.1
 (Enter /home/matheus/g09/l913.exe)
 CIDS:  MDV=  1073741824.
 Frozen-core window:  NFC=   9 NFV=   0.
 IFCWin=0 IBDFC=1 NFBD=     0     0 NFCmp=     0     0 NFFFC=     0     0
 Using DD3R+UMP44R for 1st iteration, S=T.
 Using DD4RQ for 2nd and later iterations.
 R2 and R3 integrals will be kept in memory, NReq=   699641945.
 Symmetry not used in FoFDir.
 MinBra= 0 MaxBra= 3 Meth= 1.
 IRaf=       0 NMat=   1 IRICut=       1 DoRegI=T DoRafI=F ISym2E= 0 JSym2E=0.
 MP4(SDTQ)
 =========
 DD1Dir will call FoFMem   1 times, MxPair=        90
 NAB=    45 NAA=     0 NBB=     0.
 MP4(D)= -0.37008553D-02
 MP4(S)= -0.10814753D-02
 MP4(R+Q)=  0.42218513D-02
 T4(AAA)= -0.32430523D-03
 T4(AAB)= -0.35409191D-02
 Time for triples=      764.37 seconds.
 MP4(T)=   -0.77304487D-02
 E3=       -0.98907811D-02        EUMP3=      -0.27523049462D+04
 E4(DQ)=    0.52099595D-03        UMP4(DQ)=   -0.27523044252D+04
 E4(SDQ)=  -0.56047936D-03        UMP4(SDQ)=  -0.27523055066D+04
 E4(SDTQ)= -0.82909280D-02        UMP4(SDTQ)= -0.27523132371D+04
 VARIATIONAL ENERGIES WITH THE FIRST-ORDER WAVEFUNCTION:
 E(VAR1)=  -0.27522890678D+04     E(CISD,4)=  -0.27522934487D+04
 Largest amplitude= 1.61D-02
 Leave Link  913 at Fri Sep 17 08:43:59 2021, MaxMem= 1073741824 cpu:     870.1
 (Enter /home/matheus/g09/l601.exe)
 Copying SCF densities to generalized density rwf, IOpCl= 0 IROHF=0.

 **********************************************************************

            Population analysis using the SCF density.

 **********************************************************************

 Orbital symmetries:
       Occupied  (A) (A) (A) (A) (A) (A) (A) (A) (A) (A) (A) (A)
                 (A) (A) (A) (A) (A) (A)
       Virtual   (A) (A) (A) (A) (A) (A) (A) (A) (A) (A) (A) (A)
                 (A) (A) (A) (A) (A) (A) (A) (A) (A) (A) (A) (A)
                 (A) (A) (A) (A) (A) (A) (A) (A) (A) (A) (A) (A)
                 (A) (A) (A) (A) (A) (A) (A) (A) (A) (A) (A) (A)
                 (A) (A) (A) (A) (A) (A) (A) (A) (A) (A) (A) (A)
                 (A) (A) (A) (A) (A) (A) (A) (A) (A) (A) (A) (A)
                 (A) (A) (A) (A) (A) (A) (A) (A) (A) (A) (A) (A)
                 (A) (A) (A) (A) (A) (A) (A) (A) (A) (A) (A) (A)
                 (A) (A) (A) (A) (A) (A) (A) (A) (A) (A) (A) (A)
                 (A) (A) (A) (A) (A) (A) (A) (A) (A) (A) (A) (A)
                 (A) (A) (A) (A) (A) (A) (A) (A) (A) (A) (A) (A)
                 (A) (A) (A) (A) (A) (A) (A) (A) (A) (A) (A) (A)
                 (A) (A) (A) (A) (A) (A) (A) (A) (A) (A) (A) (A)
                 (A) (A) (A) (A) (A) (A) (A) (A) (A) (A) (A) (A)
                 (A) (A) (A) (A) (A) (A) (A) (A) (A) (A) (A)
 The electronic state is 1-A.
 Alpha  occ. eigenvalues -- -520.16564 -69.90303 -63.00960 -63.00960 -63.00960
 Alpha  occ. eigenvalues --  -10.84952  -8.33152  -8.33152  -8.33151  -3.82529
 Alpha  occ. eigenvalues --   -3.82528  -3.82528  -3.82528  -3.82528  -1.15313
 Alpha  occ. eigenvalues --   -0.52433  -0.52430  -0.52430
 Alpha virt. eigenvalues --    0.02959   0.04904   0.08939   0.09212   0.11809
 Alpha virt. eigenvalues --    0.12365   0.12993   0.13620   0.16252   0.16481
 Alpha virt. eigenvalues --    0.18129   0.19615   0.20563   0.26202   0.27783
 Alpha virt. eigenvalues --    0.28998   0.29523   0.31023   0.33361   0.34743
 Alpha virt. eigenvalues --    0.35945   0.36501   0.38498   0.39981   0.40928
 Alpha virt. eigenvalues --    0.41341   0.44110   0.55253   0.56160   0.60417
 Alpha virt. eigenvalues --    0.62355   0.66721   0.68007   0.69966   0.74698
 Alpha virt. eigenvalues --    0.75889   0.76182   0.79345   0.80583   0.83813
 Alpha virt. eigenvalues --    0.84424   0.85491   0.85916   0.86454   0.87036
 Alpha virt. eigenvalues --    0.88789   0.90890   0.91178   0.91352   0.93986
 Alpha virt. eigenvalues --    0.96897   0.98733   1.00399   1.02356   1.03555
 Alpha virt. eigenvalues --    1.04208   1.06678   1.07882   1.14918   1.15038
 Alpha virt. eigenvalues --    1.17197   1.19889   1.21302   1.22522   1.26563
 Alpha virt. eigenvalues --    1.29129   1.30741   1.34091   1.36495   1.40554
 Alpha virt. eigenvalues --    1.51320   1.57493   1.59189   1.71824   1.78238
 Alpha virt. eigenvalues --    1.81179   1.83006   1.85675   1.96560   2.20635
 Alpha virt. eigenvalues --    2.30991   2.33265   2.37385   2.38143   2.39008
 Alpha virt. eigenvalues --    2.43083   2.45629   2.47206   2.48217   2.49381
 Alpha virt. eigenvalues --    2.50561   2.52907   2.52947   2.54711   2.57575
 Alpha virt. eigenvalues --    2.59127   2.59579   2.60912   2.65228   2.66172
 Alpha virt. eigenvalues --    2.69184   2.69748   2.69961   2.73164   2.74817
 Alpha virt. eigenvalues --    2.75866   2.81288   2.85119   2.89210   2.90900
 Alpha virt. eigenvalues --    2.91463   2.95510   3.00777   3.10508   3.15600
 Alpha virt. eigenvalues --    3.19232   3.24074   3.25781   3.35728   3.48796
 Alpha virt. eigenvalues --    3.59587   3.63676   3.82525   3.85840   4.02460
 Alpha virt. eigenvalues --    4.29801   4.46403   4.49267   4.51135   4.62407
 Alpha virt. eigenvalues --    4.71076   4.86868   4.88925   4.89909   4.97332
 Alpha virt. eigenvalues --    5.14698   5.19577   5.61099   5.64481   5.73356
 Alpha virt. eigenvalues --    5.88489   5.99957   6.16769   6.72590   6.88436
 Alpha virt. eigenvalues --    7.33789   7.41694   7.58715   7.64640   7.72124
 Alpha virt. eigenvalues --    7.88402   7.91043   8.10063   8.17879   8.21759
 Alpha virt. eigenvalues --    8.35165   8.45124   8.55929   8.85111   9.62457
 Alpha virt. eigenvalues --    9.70994   9.83630   9.88731   9.90031   9.97882
 Alpha virt. eigenvalues --   10.13408  10.29182  10.42069  10.96699  11.51051
 Alpha virt. eigenvalues --   11.63220  11.66472  11.98378  12.10264  13.25787
 Alpha virt. eigenvalues --   13.57957  14.52067  62.38328  64.61233
          Condensed to atoms (all electrons):
              1          2          3          4          5
     1  O    0.000415  -0.000171  -0.000263   0.000058  -0.002538
     2  O   -0.000171   0.000454   0.000083  -0.000339  -0.000508
     3  H   -0.000263   0.000083   0.000256  -0.000066   0.000453
     4  H    0.000058  -0.000339  -0.000066   0.000387  -0.002449
     5  Kr  -0.002538  -0.000508   0.000453  -0.002449  36.009968
 Mulliken atomic charges:
              1
     1  O    0.002499
     2  O    0.000482
     3  H   -0.000463
     4  H    0.002409
     5  Kr  -0.004926
 Sum of Mulliken atomic charges =   0.00000
 Mulliken charges with hydrogens summed into heavy atoms:
              1
     1  O    0.002035
     2  O    0.002891
     5  Kr  -0.004926
 Sum of Mulliken charges with hydrogens summed into heavy atoms =   0.00000
          Condensed to fragments (all electrons):
     1       0.004926
     2      -0.004926
 Electronic spatial extent (au):  <R**2>=            210.0826
 Charge=              0.0000 electrons
 Dipole moment (field-independent basis, Debye):
    X=             -0.0001    Y=              0.0002    Z=              0.0000  Tot=              0.0002
 Quadrupole moment (field-independent basis, Debye-Ang):
   XX=            -17.7258   YY=            -17.7350   ZZ=            -17.7371
   XY=             -0.0013   XZ=              0.0003   YZ=             -0.0004
 Traceless Quadrupole moment (field-independent basis, Debye-Ang):
   XX=              0.0068   YY=             -0.0024   ZZ=             -0.0044
   XY=             -0.0013   XZ=              0.0003   YZ=             -0.0004
 Octapole moment (field-independent basis, Debye-Ang**2):
  XXX=            -61.2444  YYY=              0.3934  ZZZ=             -0.1195  XYY=            -20.4237
  XXY=              0.1292  XXZ=             -0.0400  XZZ=            -20.4247  YZZ=              0.1312
  YYZ=             -0.0400  XYZ=              0.0001
 Hexadecapole moment (field-independent basis, Debye-Ang**3):
 XXXX=           -159.5884 YYYY=            -18.5508 ZZZZ=            -18.5500 XXXY=              0.4486
 XXXZ=             -0.1385 YYYX=              0.4493 YYYZ=              0.0014 ZZZX=             -0.1371
 ZZZY=              0.0009 XXYY=            -29.6982 XXZZ=            -29.7000 YYZZ=             -6.1840
 XXYZ=              0.0002 YYXZ=             -0.0458 ZZXY=              0.1496
 N-N= 0.000000000000D+00 E-N=-6.582560458096D+03  KE= 2.752043944118D+03
 Leave Link  601 at Fri Sep 17 08:43:59 2021, MaxMem= 1073741824 cpu:       0.3
 (Enter /home/matheus/g09/l122.exe)
 Counterpoise: doing MCBS calculation for fragment   1
 Leave Link  122 at Fri Sep 17 08:43:59 2021, MaxMem= 1073741824 cpu:       0.0
 (Enter /home/matheus/g09/l301.exe)
 Basis read from rwf:  (5D, 7F)
 No pseudopotential information found on rwf file.
 There are   138 symmetry adapted basis functions of A   symmetry.
 Integral buffers will be    131072 words long.
 Raffenetti 1 integral format.
 Two-electron integral symmetry is turned on.
   138 basis functions,   198 primitive gaussians,   160 cartesian basis functions
     9 alpha electrons        9 beta electrons
       nuclear repulsion energy        36.6544597899 Hartrees.
 IExCor=    0 DFT=F Ex=HF Corr=None ExCW=0 ScaHFX=  1.000000
 ScaDFX=  1.000000  1.000000  1.000000  1.000000 ScalE2=  1.000000  1.000000
 IRadAn=      5 IRanWt=     -1 IRanGd=            0 ICorTp=0
 NAtoms=    5 NActive=    4 NUniq=    4 SFac= 1.00D+00 NAtFMM=   60 NAOKFM=F Big=F
 No density basis found on file   718.
 Leave Link  301 at Fri Sep 17 08:43:59 2021, MaxMem= 1073741824 cpu:       0.2
 (Enter /home/matheus/g09/l302.exe)
 NPDir=0 NMtPBC=     1 NCelOv=     1 NCel=       1 NClECP=     1 NCelD=      1
         NCelK=      1 NCelE2=     1 NClLst=     1 CellRange=     0.0.
 One-electron integrals computed using PRISM.
 NBasis=   138 RedAO= T  NBF=   138
 NBsUse=   138 1.00D-06 NBFU=   138
 Leave Link  302 at Fri Sep 17 08:43:59 2021, MaxMem= 1073741824 cpu:       0.6
 (Enter /home/matheus/g09/l303.exe)
 DipDrv:  MaxL=1.
 Leave Link  303 at Fri Sep 17 08:43:59 2021, MaxMem= 1073741824 cpu:       0.1
 (Enter /home/matheus/g09/l401.exe)
 Harris functional with IExCor=  205 diagonalized for initial guess.
 ExpMin= 2.53D-02 ExpMax= 1.53D+04 ExpMxC= 5.22D+02 IAcc=3 IRadAn=         5 AccDes= 0.00D+00
 HarFok:  IExCor=  205 AccDes= 0.00D+00 IRadAn=         5 IDoV= 1
 ScaDFX=  1.000000  1.000000  1.000000  1.000000
 FoFCou: FMM=F IPFlag=           0 FMFlag=      100000 FMFlg1=           0
         NFxFlg=           0 DoJE=T BraDBF=F KetDBF=T FulRan=T
         Omega=  0.000000  0.000000  1.000000  0.000000  0.000000 ICntrl=     500 IOpCl=  0
         NMat0=    1 NMatS0=    1 NMatT0=    0 NMatD0=    1 NMtDS0=    0 NMtDT0=    0
         I1Cent=           4 NGrid=           0.
 Petite list used in FoFCou.
 Harris En= -150.930225575279    
 Initial guess orbital symmetries:
       Occupied  (A) (A) (A) (A) (A) (A) (A) (A) (A)
       Virtual   (A) (A) (A) (A) (A) (A) (A) (A) (A) (A) (A) (A)
                 (A) (A) (A) (A) (A) (A) (A) (A) (A) (A) (A) (A)
                 (A) (A) (A) (A) (A) (A) (A) (A) (A) (A) (A) (A)
                 (A) (A) (A) (A) (A) (A) (A) (A) (A) (A) (A) (A)
                 (A) (A) (A) (A) (A) (A) (A) (A) (A) (A) (A) (A)
                 (A) (A) (A) (A) (A) (A) (A) (A) (A) (A) (A) (A)
                 (A) (A) (A) (A) (A) (A) (A) (A) (A) (A) (A) (A)
                 (A) (A) (A) (A) (A) (A) (A) (A) (A) (A) (A) (A)
                 (A) (A) (A) (A) (A) (A) (A) (A) (A) (A) (A) (A)
                 (A) (A) (A) (A) (A) (A) (A) (A) (A) (A) (A) (A)
                 (A) (A) (A) (A) (A) (A) (A) (A) (A)
 The electronic state of the initial guess is 1-A.
 Leave Link  401 at Fri Sep 17 08:44:00 2021, MaxMem= 1073741824 cpu:       1.2
 (Enter /home/matheus/g09/l502.exe)
 Closed shell SCF:
 Requested convergence on RMS density matrix=1.00D-08 within 128 cycles.
 Requested convergence on MAX density matrix=1.00D-06.
 Requested convergence on             energy=1.00D-06.
 No special actions if energy rises.
 Using DIIS extrapolation, IDIIS=  1040.
 Integral symmetry usage will be decided dynamically.
 Keep R1 ints in memory in canonical form, NReq=85137594.
 IEnd=       97380 IEndB=       97380 NGot=  1073741824 MDV=   990733177
 LenX=   990733177 LenY=   990707136
 Symmetry not used in FoFDir.
 MinBra= 0 MaxBra= 3 Meth= 1.
 IRaf=       0 NMat=   1 IRICut=       1 DoRegI=T DoRafI=F ISym2E= 0 JSym2E=0.

 Cycle   1  Pass 1  IDiag  1:
 E= -150.782308587949    
 DIIS: error= 2.92D-02 at cycle   1 NSaved=   1.
 NSaved= 1 IEnMin= 1 EnMin= -150.782308587949     IErMin= 1 ErrMin= 2.92D-02
 ErrMax= 2.92D-02 EMaxC= 1.00D-01 BMatC= 2.10D-01 BMatP= 2.10D-01
 IDIUse=3 WtCom= 7.08D-01 WtEn= 2.92D-01
 Coeff-Com:  0.100D+01
 Coeff-En:   0.100D+01
 Coeff:      0.100D+01
 Gap=     0.706 Goal=   None    Shift=    0.000
 GapD=    0.706 DampG=2.000 DampE=0.500 DampFc=1.0000 IDamp=-1.
 RMSDP=1.46D-03 MaxDP=3.43D-02              OVMax= 5.95D-02

 Cycle   2  Pass 1  IDiag  1:
 E= -150.829341383527     Delta-E=       -0.047032795578 Rises=F Damp=F
 DIIS: error= 7.82D-03 at cycle   2 NSaved=   2.
 NSaved= 2 IEnMin= 2 EnMin= -150.829341383527     IErMin= 2 ErrMin= 7.82D-03
 ErrMax= 7.82D-03 EMaxC= 1.00D-01 BMatC= 1.28D-02 BMatP= 2.10D-01
 IDIUse=3 WtCom= 9.22D-01 WtEn= 7.82D-02
 Coeff-Com:  0.850D-01 0.915D+00
 Coeff-En:   0.000D+00 0.100D+01
 Coeff:      0.784D-01 0.922D+00
 Gap=     0.540 Goal=   None    Shift=    0.000
 RMSDP=6.42D-04 MaxDP=2.52D-02 DE=-4.70D-02 OVMax= 2.54D-02

 Cycle   3  Pass 1  IDiag  1:
[...]
         NMat0=    1 NMatS0=    1 NMatT0=    0 NMatD0=    1 NMtDS0=    0 NMtDT0=    0
         I1Cent=           4 NGrid=           0.
 Petite list used in FoFCou.
 Harris En= -150.930743129651    
 Leave Link  401 at Fri Sep 17 21:49:37 2021, MaxMem= 1073741824 cpu:       1.5
 (Enter /home/matheus/g09/l502.exe)
 Closed shell SCF:
 Requested convergence on RMS density matrix=1.00D-08 within 128 cycles.
 Requested convergence on MAX density matrix=1.00D-06.
 Requested convergence on             energy=1.00D-06.
 No special actions if energy rises.
 Using DIIS extrapolation, IDIIS=  1040.
 Integral symmetry usage will be decided dynamically.
 Keep R1 ints in memory in canonical form, NReq=85137594.
 IEnd=       97380 IEndB=       97380 NGot=  1073741824 MDV=   990733177
 LenX=   990733177 LenY=   990707136
 Symmetry not used in FoFDir.
 MinBra= 0 MaxBra= 3 Meth= 1.
 IRaf=       0 NMat=   1 IRICut=       1 DoRegI=T DoRafI=F ISym2E= 0 JSym2E=0.

 Cycle   1  Pass 1  IDiag  1:
 E= -150.837112375310    
 DIIS: error= 3.73D-08 at cycle   1 NSaved=   1.
 NSaved= 1 IEnMin= 1 EnMin= -150.837112375310     IErMin= 1 ErrMin= 3.73D-08
 ErrMax= 3.73D-08 EMaxC= 1.00D-01 BMatC= 3.37D-13 BMatP= 3.37D-13
 IDIUse=1 WtCom= 1.00D+00 WtEn= 0.00D+00
 Coeff-Com:  0.100D+01
 Coeff:      0.100D+01
 Gap=     0.529 Goal=   None    Shift=    0.000
 RMSDP=4.18D-09 MaxDP=1.34D-07              OVMax= 2.70D-07

 SCF Done:  E(RHF) =  -150.837112375     A.U. after    1 cycles
             Convg  =    0.4180D-08             -V/T =  2.0021
 KE= 1.505282685059D+02 PE=-4.315414354317D+02 EE= 9.351215272369D+01
 Leave Link  502 at Fri Sep 17 21:49:39 2021, MaxMem= 1073741824 cpu:      10.6
 (Enter /home/matheus/g09/l801.exe)
 Windowed orbitals will be sorted by symmetry type.
 ExpMin= 2.53D-02 ExpMax= 1.53D+04 ExpMxC= 5.22D+02 IAcc=3 IRadAn=         5 AccDes= 0.00D+00
 HarFok:  IExCor=  205 AccDes= 0.00D+00 IRadAn=         5 IDoV=-2
 ScaDFX=  1.000000  1.000000  1.000000  1.000000
 DSYEVD returned Info=          93 IAlg= 4 N=    46 NDim=    46 NE2=    23340785 trying DSYEV.
 DSYEVD returned Info=          93 IAlg= 4 N=    46 NDim=    46 NE2=    23340785 trying DSYEV.
 Largest valence mixing into a core orbital is  1.45D-04
 Largest core mixing into a valence orbital is  2.62D-05
 Range of M.O.s used for correlation:     3   138
 NBasis=   138 NAE=     9 NBE=     9 NFC=     2 NFV=     0
 NROrb=    136 NOA=     7 NOB=     7 NVA=   129 NVB=   129

 **** Warning!!: The largest alpha MO coefficient is  0.12947891D+02

 Leave Link  801 at Fri Sep 17 21:49:39 2021, MaxMem= 1073741824 cpu:       0.3
 (Enter /home/matheus/g09/l804.exe)
 Closed-shell transformation, MDV=  1073741824 ITran=4 ISComp=1.
 Semi-Direct transformation.
 ModeAB=           2 MOrb=             7 LenV=    1073120373
 LASXX=      8463147 LTotXX=     8463147 LenRXX=     8463147
 LTotAB=     8647912 MaxLAS=    12261760 LenRXY=    12261760
 NonZer=    16926294 LenScr=    26146816 LnRSAI=           0
 LnScr1=           0 LExtra=           0 Total=     46871723
 MaxDsk=          -1 SrtSym=           F ITran=            4
 DoSDTr:  NPSUse=  8
 JobTyp=0 Pass  1:  I=   1 to   7.
 (rs|ai) integrals will be sorted in core.
 Complete sort for first half transformation.
 First half transformation complete.
 Complete sort for second half transformation.
 Second half transformation complete.
 SymMOI:  orbitals are not symmetric.
 Spin components of T(2) and E(2):
     alpha-alpha T2 =       0.1602015874D-01 E2=     -0.6286029071D-01
     alpha-beta  T2 =       0.9329857329D-01 E2=     -0.3820520956D+00
     beta-beta   T2 =       0.1602015874D-01 E2=     -0.6286029071D-01
 ANorm=    0.1060819914D+01
 E2 =    -0.5077726771D+00 EUMP2 =    -0.15134488505236D+03
 Leave Link  804 at Fri Sep 17 21:49:41 2021, MaxMem= 1073741824 cpu:      15.9
 (Enter /home/matheus/g09/l913.exe)
 CIDS:  MDV=  1073741824.
 Frozen-core window:  NFC=   2 NFV=   0.
 IFCWin=0 IBDFC=1 NFBD=     0     0 NFCmp=     0     0 NFFFC=     0     0
 Using DD3R+UMP44R for 1st iteration, S=T.
 Using DD4RQ for 2nd and later iterations.
 R2 and R3 integrals will be kept in memory, NReq=   167993840.
 Symmetry not used in FoFDir.
 MinBra= 0 MaxBra= 3 Meth= 1.
 IRaf=       0 NMat=   1 IRICut=       1 DoRegI=T DoRafI=F ISym2E= 0 JSym2E=0.
 MP4(SDTQ)
 =========
 DD1Dir will call FoFMem   1 times, MxPair=        56
 NAB=    28 NAA=     0 NBB=     0.
 MP4(D)= -0.11292305D-01
 MP4(S)= -0.52226237D-02
 MP4(R+Q)=  0.10774746D-01
 T4(AAA)= -0.65990702D-03
 T4(AAB)= -0.10271698D-01
 Time for triples=      126.97 seconds.
 MP4(T)=   -0.21863209D-01
 E3=       -0.19885370D-02        EUMP3=      -0.15134687359D+03
 E4(DQ)=   -0.51755890D-03        UMP4(DQ)=   -0.15134739115D+03
 E4(SDQ)=  -0.57401826D-02        UMP4(SDQ)=  -0.15135261377D+03
 E4(SDTQ)= -0.27603392D-01        UMP4(SDTQ)= -0.15137447698D+03
 VARIATIONAL ENERGIES WITH THE FIRST-ORDER WAVEFUNCTION:
 E(VAR1)=  -0.15129009700D+03     E(CISD,4)=  -0.15129974485D+03
 Largest amplitude= 3.70D-02
 Leave Link  913 at Fri Sep 17 21:50:00 2021, MaxMem= 1073741824 cpu:     152.0
 (Enter /home/matheus/g09/l122.exe)
 Restoring MOs from calculation   5 to rwf.
 Counterpoise: doing MCBS calculation for fragment   2
 Leave Link  122 at Fri Sep 17 21:50:00 2021, MaxMem= 1073741824 cpu:       0.0
 (Enter /home/matheus/g09/l301.exe)
 Basis read from rwf:  (5D, 7F)
 No pseudopotential information found on rwf file.
 There are    59 symmetry adapted basis functions of A   symmetry.
 Integral buffers will be    131072 words long.
 Raffenetti 1 integral format.
 Two-electron integral symmetry is turned on.
    59 basis functions,   217 primitive gaussians,    69 cartesian basis functions
    18 alpha electrons       18 beta electrons
       nuclear repulsion energy         0.0000000000 Hartrees.
 IExCor=    0 DFT=F Ex=HF Corr=None ExCW=0 ScaHFX=  1.000000
 ScaDFX=  1.000000  1.000000  1.000000  1.000000 ScalE2=  1.000000  1.000000
 IRadAn=      5 IRanWt=     -1 IRanGd=            0 ICorTp=0
 NAtoms=    5 NActive=    1 NUniq=    1 SFac= 1.00D+00 NAtFMM=   60 NAOKFM=F Big=F
 No density basis found on file   718.
 Leave Link  301 at Fri Sep 17 21:50:00 2021, MaxMem= 1073741824 cpu:       0.3
 (Enter /home/matheus/g09/l302.exe)
 NPDir=0 NMtPBC=     1 NCelOv=     1 NCel=       1 NClECP=     1 NCelD=      1
         NCelK=      1 NCelE2=     1 NClLst=     1 CellRange=     0.0.
 One-electron integrals computed using PRISM.
 NBasis=    59 RedAO= T  NBF=    59
 NBsUse=    59 1.00D-06 NBFU=    59
 Leave Link  302 at Fri Sep 17 21:50:00 2021, MaxMem= 1073741824 cpu:       0.6
 (Enter /home/matheus/g09/l303.exe)
 DipDrv:  MaxL=1.
 Leave Link  303 at Fri Sep 17 21:50:00 2021, MaxMem= 1073741824 cpu:       0.1
 (Enter /home/matheus/g09/l401.exe)
 Initial guess read from the read-write file.
 Guess basis will be translated and rotated to current coordinates.
 Initial guess orbital symmetries:
       Occupied  (A) (A) (A) (A) (A) (A) (A) (A) (A) (A) (A) (A)
                 (A) (A) (A) (A) (A) (A)
       Virtual   (A) (A) (A) (A) (A) (A) (A) (A) (A) (A) (A) (A)
                 (A) (A) (A) (A) (A) (A) (A) (A) (A) (A) (A) (A)
                 (A) (A) (A) (A) (A) (A) (A) (A) (A) (A) (A) (A)
                 (A) (A) (A) (A) (A)
 The electronic state of the initial guess is 1-A.
 Generating alternative initial guess.
 Harris functional with IExCor=  205 diagonalized for initial guess.
 ExpMin= 4.00D-02 ExpMax= 1.17D+07 ExpMxC= 1.33D+04 IAcc=3 IRadAn=         5 AccDes= 0.00D+00
 HarFok:  IExCor=  205 AccDes= 0.00D+00 IRadAn=         5 IDoV= 1
 ScaDFX=  1.000000  1.000000  1.000000  1.000000
 FoFCou: FMM=F IPFlag=           0 FMFlag=      100000 FMFlg1=           0
         NFxFlg=           0 DoJE=T BraDBF=F KetDBF=T FulRan=T
         Omega=  0.000000  0.000000  1.000000  0.000000  0.000000 ICntrl=     500 IOpCl=  0
         NMat0=    1 NMatS0=    1 NMatT0=    0 NMatD0=    1 NMtDS0=    0 NMtDT0=    0
         I1Cent=           4 NGrid=           0.
 Petite list used in FoFCou.
 Harris En= -2751.00433356852    
 Leave Link  401 at Fri Sep 17 21:50:00 2021, MaxMem= 1073741824 cpu:       1.0
 (Enter /home/matheus/g09/l502.exe)
 Closed shell SCF:
 Requested convergence on RMS density matrix=1.00D-08 within 128 cycles.
 Requested convergence on MAX density matrix=1.00D-06.
 Requested convergence on             energy=1.00D-06.
 No special actions if energy rises.
 Using DIIS extrapolation, IDIIS=  1040.
 Integral symmetry usage will be decided dynamically.
 Keep R1 ints in memory in canonical form, NReq=4890817.
 IEnd=       33483 IEndB=       33483 NGot=  1073741824 MDV=  1070812464
 LenX=  1070812464 LenY=  1070807262
 Symmetry not used in FoFDir.
 MinBra= 0 MaxBra= 3 Meth= 1.
 IRaf=       0 NMat=   1 IRICut=       1 DoRegI=T DoRafI=F ISym2E= 0 JSym2E=0.

 Cycle   1  Pass 1  IDiag  1:
 E= -2752.05222307715    
 DIIS: error= 1.33D-13 at cycle   1 NSaved=   1.
 NSaved= 1 IEnMin= 1 EnMin= -2752.05222307715     IErMin= 1 ErrMin= 1.33D-13
 ErrMax= 1.33D-13 EMaxC= 1.00D-01 BMatC= 6.65D-25 BMatP= 6.65D-25
 IDIUse=1 WtCom= 1.00D+00 WtEn= 0.00D+00
 Coeff-Com:  0.100D+01
 Coeff:      0.100D+01
 Gap=     0.629 Goal=   None    Shift=    0.000
 RMSDP=8.10D-15 MaxDP=1.03D-13              OVMax= 8.20D-14

 SCF Done:  E(RHF) =  -2752.05222308     A.U. after    1 cycles
             Convg  =    0.8102D-14             -V/T =  2.0000
 KE= 2.752048106938D+03 PE=-6.582565276258D+03 EE= 1.078464946243D+03
 Leave Link  502 at Fri Sep 17 21:50:01 2021, MaxMem= 1073741824 cpu:       4.0
 (Enter /home/matheus/g09/l801.exe)
 Windowed orbitals will be sorted by symmetry type.
 ExpMin= 4.00D-02 ExpMax= 1.17D+07 ExpMxC= 1.33D+04 IAcc=3 IRadAn=         5 AccDes= 0.00D+00
 HarFok:  IExCor=  205 AccDes= 0.00D+00 IRadAn=         5 IDoV=-2
 ScaDFX=  1.000000  1.000000  1.000000  1.000000
 DSYEVD returned Info=          89 IAlg= 4 N=    59 NDim=    59 NE2=    18198539 trying DSYEV.
 Largest valence mixing into a core orbital is  4.55D-05
 Largest core mixing into a valence orbital is  1.52D-05
 Range of M.O.s used for correlation:    10    59
 NBasis=    59 NAE=    18 NBE=    18 NFC=     9 NFV=     0
 NROrb=     50 NOA=     9 NOB=     9 NVA=    41 NVB=    41
 Leave Link  801 at Fri Sep 17 21:50:01 2021, MaxMem= 1073741824 cpu:       0.3
 (Enter /home/matheus/g09/l804.exe)
 Closed-shell transformation, MDV=  1073741824 ITran=4 ISComp=1.
 Semi-Direct transformation.
 ModeAB=           2 MOrb=             9 LenV=    1073411294
 LASXX=       482211 LTotXX=      482211 LenRXX=      482211
 LTotAB=      511245 MaxLAS=     1086750 LenRXY=     1086750
 NonZer=     1162350 LenScr=     2357760 LnRSAI=           0
 LnScr1=           0 LExtra=           0 Total=      3926721
 MaxDsk=          -1 SrtSym=           F ITran=            4
 DoSDTr:  NPSUse=  8
 JobTyp=0 Pass  1:  I=   1 to   9.
 (rs|ai) integrals will be sorted in core.
 Complete sort for first half transformation.
 First half transformation complete.
 Complete sort for second half transformation.
 Second half transformation complete.
 SymMOI:  orbitals are not symmetric.
 Spin components of T(2) and E(2):
     alpha-alpha T2 =       0.9484485167D-02 E2=     -0.3552398032D-01
     alpha-beta  T2 =       0.4799866946D-01 E2=     -0.1708433112D+00
     beta-beta   T2 =       0.9484485167D-02 E2=     -0.3552398032D-01
 ANorm=    0.1032941257D+01
 E2 =    -0.2418912719D+00 EUMP2 =    -0.27522941143490D+04
 Leave Link  804 at Fri Sep 17 21:50:01 2021, MaxMem= 1073741824 cpu:       4.2
 (Enter /home/matheus/g09/l913.exe)
 CIDS:  MDV=  1073741824.
 Frozen-core window:  NFC=   9 NFV=   0.
 IFCWin=0 IBDFC=1 NFBD=     0     0 NFCmp=     0     0 NFFFC=     0     0
 Using DD3R+UMP44R for 1st iteration, S=T.
 Using DD4RQ for 2nd and later iterations.
 R2 and R3 integrals will be kept in memory, NReq=     7774640.
 Symmetry not used in FoFDir.
 MinBra= 0 MaxBra= 3 Meth= 1.
 IRaf=       0 NMat=   1 IRICut=       1 DoRegI=T DoRafI=F ISym2E= 0 JSym2E=0.
 MP4(SDTQ)
 =========
 DD1Dir will call FoFMem   1 times, MxPair=        90
 NAB=    45 NAA=     0 NBB=     0.
 MP4(D)= -0.36913093D-02
 MP4(S)= -0.10734540D-02
 MP4(R+Q)=  0.42077927D-02
 T4(AAA)= -0.32336090D-03
 T4(AAB)= -0.35259699D-02
 Time for triples=        5.63 seconds.
 MP4(T)=   -0.76986616D-02
 E3=       -0.99406389D-02        EUMP3=      -0.27523040550D+04
 E4(DQ)=    0.51648341D-03        UMP4(DQ)=   -0.27523035385D+04
 E4(SDQ)=  -0.55697064D-03        UMP4(SDQ)=  -0.27523046120D+04
 E4(SDTQ)= -0.82556322D-02        UMP4(SDTQ)= -0.27523123106D+04
 VARIATIONAL ENERGIES WITH THE FIRST-ORDER WAVEFUNCTION:
 E(VAR1)=  -0.27522882489D+04     E(CISD,4)=  -0.27522926209D+04
 Largest amplitude= 2.33D-02
 Leave Link  913 at Fri Sep 17 21:50:03 2021, MaxMem= 1073741824 cpu:      11.3
 (Enter /home/matheus/g09/l122.exe)
 Restoring MOs from calculation   1 to rwf.
 Counterpoise: corrected energy =   -2903.687889008975
 Counterpoise: BSSE energy =       0.001001235506
 Leave Link  122 at Fri Sep 17 21:50:03 2021, MaxMem= 1073741824 cpu:       0.0
 (Enter /home/matheus/g09/l114.exe)

 NEF-NEF-NEF-NEF-NEF-NEF-NEF-NEF-NEF-NEF-NEF-NEF-NEF-NEF-NEF-NEF-NEF-NEF-
 NUMERICAL EIGENVECTOR FOLLOWING MINIMUM SEARCH
 GRADIENT ESTIMATION COMPLETE
 Hessian updated using Powell update
 ITERATION  23
 HESSIAN EIGENVECTORS AND EIGENVALUES
                           1         2
     Eigenvalues --     0.01903   0.09918
   1         T         -0.63322   0.77397
   2         R          0.77397   0.63322
 MINIMUM SEARCH. TAKING SIMPLE RFO STEP
 SEARCHING FOR LAMDA THAT MINIMIZES ALONG ALL MODES
 VALUE TAKEN    LAMDA=  -0.00000183
 STEP TAKEN. STEPSIZE IS  0.008107
 CURRENT PARAMETER VALUES (INTERNAL COORDINATES)
    I        X         GRADIENT    DISPLACEMENT       NEWX
    1    1.744094      0.000299     -0.006929      1.737165
    2    6.959355      0.000057      0.004207      6.963563
         ITEM               VALUE     THRESHOLD  CONVERGED?
 MAXIMUM FORCE            0.000299     0.000450     YES
 RMS     FORCE            0.000215     0.000300     YES
 MAXIMUM DISPLACEMENT     0.006929     0.001800     NO 
 RMS     DISPLACEMENT     0.005732     0.001200     NO 


 ***********************************
 **     OPTIMIZATION STOPPED      **
 **  MAXIMUM ITERATIONS EXCEEDED  **
 ***********************************


 PREDICTED CHANGE IN ENERGY  -0.000001

 NEF-NEF-NEF-NEF-NEF-NEF-NEF-NEF-NEF-NEF-NEF-NEF-NEF-NEF-NEF-NEF-NEF-NEF-
 Leave Link  114 at Fri Sep 17 21:50:03 2021, MaxMem= 1073741824 cpu:       0.0
 (Enter /home/matheus/g09/l202.exe)
 ---------------------------------------------------------------------------------------------------
                            Z-MATRIX (ANGSTROMS AND DEGREES)
   CD    Cent   Atom    N1       Length/X        N2       Alpha/Y        N3        Beta/Z          J
 ---------------------------------------------------------------------------------------------------
      1      1  O        0   0.000000          0.000000         -0.725000
      2      2  O        1   1.450000(     1)
      3      3  H        1   0.966000(     2)      2  108.000(     5)
      4      4  H        2   0.966000(     3)      1  105.000(     6)      3   99.929(     8)      0
      5      5  Kr       0   0.000000          3.682732          0.000000
 ---------------------------------------------------------------------------------------------------
                         Z-Matrix orientation:                         
 ---------------------------------------------------------------------
 Center     Atomic      Atomic             Coordinates (Angstroms)
 Number     Number       Type             X           Y           Z
 ---------------------------------------------------------------------
      1          8           0        0.000000    0.000000   -0.725000
      2          8           0        0.000000    0.000000    0.725000
      3          1           0        0.918721    0.000000   -1.023510
      4          1           0       -0.160893    0.919108    0.975019
      5         36           0        0.000000    3.682732    0.000000
 ---------------------------------------------------------------------
                    Distance matrix (angstroms):
                    1          2          3          4          5
     1  O    0.000000
     2  O    1.450000   0.000000
     3  H    0.966000   1.975180   0.000000
     4  H    1.939255   0.966000   2.450397   0.000000
     5  Kr   3.753417   3.753417   3.931175   2.934990   0.000000
 Stoichiometry    H2KrO2
 Framework group  C1[X(H2KrO2)]
 Deg. of freedom     9
 Full point group                 C1      NOp   1
 RotChk:  IX=0 Diff= 5.05D-07
 Largest Abelian subgroup         C1      NOp   1
 Largest concise Abelian subgroup C1      NOp   1
                         Standard orientation:                         
 ---------------------------------------------------------------------
 Center     Atomic      Atomic             Coordinates (Angstroms)
 Number     Number       Type             X           Y           Z
 ---------------------------------------------------------------------
      1          8           0       -2.476749   -0.697502   -0.124010
      2          8           0       -2.466705    0.743482    0.037125
      3          1           0       -2.490595   -1.096164    0.755781
      4          1           0       -1.543899    1.002175   -0.083973
      5         36           0        1.210614   -0.007607    0.000646
 ---------------------------------------------------------------------
 Rotational constants (GHZ):     25.6767209      1.5550400      1.4729976
 Leave Link  202 at Fri Sep 17 21:50:03 2021, MaxMem= 1073741824 cpu:       0.0
 (Enter /home/matheus/g09/l601.exe)
 Copying SCF densities to generalized density rwf, IOpCl= 0 IROHF=0.

 **********************************************************************

            Population analysis using the SCF density.

 **********************************************************************

 Electronic spatial extent (au):  <R**2>=            677.4426
 Charge=              0.0000 electrons
 Dipole moment (field-independent basis, Debye):
    X=              1.7769    Y=             -0.3218    Z=              1.3397  Tot=              2.2485
 Quadrupole moment (field-independent basis, Debye-Ang):
   XX=            -36.2073   YY=            -27.8992   ZZ=            -28.9294
   XY=              2.4992   XZ=             -3.7266   YZ=             -2.2988
 Traceless Quadrupole moment (field-independent basis, Debye-Ang):
   XX=             -5.1954   YY=              3.1128   ZZ=              2.0826
   XY=              2.4992   XZ=             -3.7266   YZ=             -2.2988
 Octapole moment (field-independent basis, Debye-Ang**2):
  XXX=             45.6741  YYY=             -1.2172  ZZZ=              1.3287  XYY=              5.3764
  XXY=             -9.4870  XXZ=              9.7339  XZZ=              5.9317  YZZ=             -1.8081
  YYZ=              2.1261  XYZ=              5.5192
 Hexadecapole moment (field-independent basis, Debye-Ang**3):
 XXXX=           -675.8670 YYYY=            -62.1631 ZZZZ=            -29.1116 XXXY=             26.8349
 XXXZ=            -26.3355 YYYX=              5.1803 YYYZ=             -3.4203 ZZZX=             -3.6744
 ZZZY=             -2.2753 XXYY=           -110.8655 XXZZ=           -102.1630 YYZZ=            -15.4545
 XXYZ=            -13.7268 YYXZ=             -5.6332 ZZXY=              4.4093
 No NMR shielding tensors so no spin-rotation constants.
 Leave Link  601 at Fri Sep 17 21:50:03 2021, MaxMem= 1073741824 cpu:       0.8
 (Enter /home/matheus/g09/l9999.exe)


 ALL MEN WHO EXPLORE
 DEPLORE
 THAT FRUSTRATING HURDLE
 THE GIRDLE.

         -- COLIN FLETCHER
 Error termination request processed by link 9999.
 Error termination via Lnk1e in /home/matheus/g09/l9999.exe at Fri Sep 17 21:50:03 2021.
 Job cpu time:  4 days  8 hours 40 minutes 12.8 seconds.
 File lengths (MBytes):  RWF=   3944 Int=      0 D2E=      0 Chk=      7 Scr=      1
